<?xml version="1.0" encoding="ISO-8859-1"?>
<modeling>
 <generator>
  <i name="program" type="string">vasp </i>
  <i name="version" type="string">5.4.1  </i>
  <i name="subversion" type="string">24Jun15 (build Jul  8 2015 13:29:37) complex                          parallel </i>
  <i name="platform" type="string">FX10FRT </i>
  <i name="date" type="string">2016 02 20 </i>
  <i name="time" type="string">07:08:45 </i>
 </generator>
 <incar>
  <i type="string" name="PREC">accurate</i>
  <i type="string" name="ALGO"> Normal</i>
  <i type="int" name="ISPIN">     1</i>
  <i type="int" name="IBRION">    -1</i>
  <i name="EDIFF">      0.00010000</i>
  <i type="int" name="NSW">     0</i>
  <i type="int" name="ISIF">     2</i>
  <i name="ENCUT">    400.00000000</i>
  <i type="int" name="ISMEAR">     2</i>
  <i name="SIGMA">      0.10000000</i>
  <i type="int" name="NWRITE">     1</i>
  <v type="int" name="KPOINT_BSE">    -1     0     0     0</v>
 </incar>
 <kpoints>
  <generation param="Monkhorst-Pack">
   <v type="int" name="divisions">       9        9        9 </v>
   <v name="usershift">      0.00000000       0.00000000       0.00000000 </v>
   <v name="genvec1">      0.11111111       0.00000000       0.00000000 </v>
   <v name="genvec2">      0.00000000       0.11111111       0.00000000 </v>
   <v name="genvec3">      0.00000000       0.00000000       0.11111111 </v>
   <v name="shift">      0.00000000       0.00000000       0.00000000 </v>
  </generation>
  <varray name="kpointlist" >
   <v>       0.00000000       0.00000000       0.00000000 </v>
   <v>       0.11111111       0.00000000       0.00000000 </v>
   <v>       0.22222222       0.00000000       0.00000000 </v>
   <v>       0.33333333       0.00000000       0.00000000 </v>
   <v>       0.44444444       0.00000000       0.00000000 </v>
   <v>       0.11111111       0.11111111       0.00000000 </v>
   <v>       0.22222222       0.11111111       0.00000000 </v>
   <v>       0.33333333       0.11111111       0.00000000 </v>
   <v>       0.44444444       0.11111111       0.00000000 </v>
   <v>       0.22222222       0.22222222       0.00000000 </v>
   <v>       0.33333333       0.22222222       0.00000000 </v>
   <v>       0.44444444       0.22222222       0.00000000 </v>
   <v>       0.33333333       0.33333333       0.00000000 </v>
   <v>       0.44444444       0.33333333       0.00000000 </v>
   <v>       0.44444444       0.44444444       0.00000000 </v>
   <v>       0.11111111       0.11111111       0.11111111 </v>
   <v>       0.22222222       0.11111111       0.11111111 </v>
   <v>       0.33333333       0.11111111       0.11111111 </v>
   <v>       0.44444444       0.11111111       0.11111111 </v>
   <v>       0.22222222       0.22222222       0.11111111 </v>
   <v>       0.33333333       0.22222222       0.11111111 </v>
   <v>       0.44444444       0.22222222       0.11111111 </v>
   <v>       0.33333333       0.33333333       0.11111111 </v>
   <v>       0.44444444       0.33333333       0.11111111 </v>
   <v>       0.44444444       0.44444444       0.11111111 </v>
   <v>       0.22222222       0.22222222       0.22222222 </v>
   <v>       0.33333333       0.22222222       0.22222222 </v>
   <v>       0.44444444       0.22222222       0.22222222 </v>
   <v>       0.33333333       0.33333333       0.22222222 </v>
   <v>       0.44444444       0.33333333       0.22222222 </v>
   <v>       0.44444444       0.44444444       0.22222222 </v>
   <v>       0.33333333       0.33333333       0.33333333 </v>
   <v>       0.44444444       0.33333333       0.33333333 </v>
   <v>       0.44444444       0.44444444       0.33333333 </v>
   <v>       0.44444444       0.44444444       0.44444444 </v>
  </varray>
  <varray name="weights" >
   <v>       0.00137174 </v>
   <v>       0.00823045 </v>
   <v>       0.00823045 </v>
   <v>       0.00823045 </v>
   <v>       0.00823045 </v>
   <v>       0.01646091 </v>
   <v>       0.03292181 </v>
   <v>       0.03292181 </v>
   <v>       0.03292181 </v>
   <v>       0.01646091 </v>
   <v>       0.03292181 </v>
   <v>       0.03292181 </v>
   <v>       0.01646091 </v>
   <v>       0.03292181 </v>
   <v>       0.01646091 </v>
   <v>       0.01097394 </v>
   <v>       0.03292181 </v>
   <v>       0.03292181 </v>
   <v>       0.03292181 </v>
   <v>       0.03292181 </v>
   <v>       0.06584362 </v>
   <v>       0.06584362 </v>
   <v>       0.03292181 </v>
   <v>       0.06584362 </v>
   <v>       0.03292181 </v>
   <v>       0.01097394 </v>
   <v>       0.03292181 </v>
   <v>       0.03292181 </v>
   <v>       0.03292181 </v>
   <v>       0.06584362 </v>
   <v>       0.03292181 </v>
   <v>       0.01097394 </v>
   <v>       0.03292181 </v>
   <v>       0.03292181 </v>
   <v>       0.01097394 </v>
  </varray>
 </kpoints>
 <parameters>
  <separator name="general" >
   <i type="string" name="SYSTEM">unknown system</i>
   <i type="logical" name="LCOMPAT"> F  </i>
  </separator>
  <separator name="electronic" >
   <i type="string" name="PREC">accura</i>
   <i name="ENMAX">    400.00000000</i>
   <i name="ENAUG">    322.06900000</i>
   <i name="EDIFF">      0.00010000</i>
   <i type="int" name="IALGO">    38</i>
   <i type="int" name="IWAVPR">    10</i>
   <i type="int" name="NBANDS">    24</i>
   <i name="NELECT">     32.00000000</i>
   <i type="int" name="TURBO">     0</i>
   <i type="int" name="IRESTART">     0</i>
   <i type="int" name="NREBOOT">     0</i>
   <i type="int" name="NMIN">     0</i>
   <i name="EREF">      0.00000000</i>
   <separator name="electronic smearing" >
    <i type="int" name="ISMEAR">     2</i>
    <i name="SIGMA">      0.10000000</i>
    <i name="KSPACING">      0.50000000</i>
    <i type="logical" name="KGAMMA"> T  </i>
   </separator>
   <separator name="electronic projectors" >
    <i type="logical" name="LREAL"> F  </i>
    <v name="ROPT">      0.00000000</v>
    <i type="int" name="LMAXPAW">  -100</i>
    <i type="int" name="LMAXMIX">     2</i>
    <i type="logical" name="NLSPLINE"> F  </i>
   </separator>
   <separator name="electronic startup" >
    <i type="int" name="ISTART">     0</i>
    <i type="int" name="ICHARG">     2</i>
    <i type="int" name="INIWAV">     1</i>
   </separator>
   <separator name="electronic spin" >
    <i type="int" name="ISPIN">     1</i>
    <i type="logical" name="LNONCOLLINEAR"> F  </i>
    <v name="MAGMOM">      1.00000000      1.00000000      1.00000000      1.00000000      1.00000000      1.00000000      1.00000000      1.00000000</v>
    <i name="NUPDOWN">     -1.00000000</i>
    <i type="logical" name="LSORBIT"> F  </i>
    <v name="SAXIS">      0.00000000      0.00000000      1.00000000</v>
    <i type="logical" name="LSPIRAL"> F  </i>
    <v name="QSPIRAL">      0.00000000      0.00000000      0.00000000</v>
    <i type="logical" name="LZEROZ"> F  </i>
   </separator>
   <separator name="electronic exchange-correlation" >
    <i type="logical" name="LASPH"> F  </i>
    <i type="logical" name="LMETAGGA"> F  </i>
   </separator>
   <separator name="electronic convergence" >
    <i type="int" name="NELM">    60</i>
    <i type="int" name="NELMDL">    -5</i>
    <i type="int" name="NELMIN">     2</i>
    <i name="ENINI">    400.00000000</i>
    <separator name="electronic convergence detail" >
     <i type="logical" name="LDIAG"> T  </i>
     <i type="logical" name="LSUBROT"> F  </i>
     <i name="WEIMIN">      0.00000000</i>
     <i name="EBREAK">      0.00000104</i>
     <i name="DEPER">      0.30000000</i>
     <i type="int" name="NRMM">     4</i>
     <i name="TIME">      0.40000000</i>
    </separator>
   </separator>
   <separator name="electronic mixer" >
    <i name="AMIX">      0.40000000</i>
    <i name="BMIX">      1.00000000</i>
    <i name="AMIN">      0.10000000</i>
    <i name="AMIX_MAG">      1.60000000</i>
    <i name="BMIX_MAG">      1.00000000</i>
    <separator name="electronic mixer details" >
     <i type="int" name="IMIX">     4</i>
     <i type="logical" name="MIXFIRST"> F  </i>
     <i type="int" name="MAXMIX">   -45</i>
     <i name="WC">    100.00000000</i>
     <i type="int" name="INIMIX">     1</i>
     <i type="int" name="MIXPRE">     1</i>
     <i type="int" name="MREMOVE">     5</i>
    </separator>
   </separator>
   <separator name="electronic dipolcorrection" >
    <i type="logical" name="LDIPOL"> F  </i>
    <i type="logical" name="LMONO"> F  </i>
    <i type="int" name="IDIPOL">     0</i>
    <i name="EPSILON">      1.00000000</i>
    <v name="DIPOL">   -100.00000000   -100.00000000   -100.00000000</v>
    <i name="EFIELD">      0.00000000</i>
   </separator>
  </separator>
  <separator name="grids" >
   <i type="int" name="NGX">    36</i>
   <i type="int" name="NGY">    36</i>
   <i type="int" name="NGZ">    36</i>
   <i type="int" name="NGXF">    72</i>
   <i type="int" name="NGYF">    72</i>
   <i type="int" name="NGZF">    72</i>
   <i type="logical" name="ADDGRID"> F  </i>
  </separator>
  <separator name="ionic" >
   <i type="int" name="NSW">     0</i>
   <i type="int" name="IBRION">    -1</i>
   <i type="int" name="ISIF">     2</i>
   <i name="PSTRESS">      0.00000000</i>
   <i name="EDIFFG">      0.00100000</i>
   <i type="int" name="NFREE">     0</i>
   <i name="POTIM">      0.50000000</i>
   <i name="SMASS">     -3.00000000</i>
   <i name="SCALEE">      1.00000000</i>
  </separator>
  <separator name="ionic md" >
   <i name="TEBEG">      0.00010000</i>
   <i name="TEEND">      0.00010000</i>
   <i type="int" name="NBLOCK">     1</i>
   <i type="int" name="KBLOCK">     1</i>
   <i type="int" name="NPACO">   256</i>
   <i name="APACO">     16.00000000</i>
  </separator>
  <separator name="symmetry" >
   <i type="int" name="ISYM">     2</i>
   <i name="SYMPREC">      0.00001000</i>
  </separator>
  <separator name="dos" >
   <i type="logical" name="LORBIT"> F  </i>
   <v name="RWIGS">     -1.00000000</v>
   <i type="int" name="NEDOS">   301</i>
   <i name="EMIN">     10.00000000</i>
   <i name="EMAX">    -10.00000000</i>
   <i name="EFERMI">      0.00000000</i>
  </separator>
  <separator name="writing" >
   <i type="int" name="NWRITE">     1</i>
   <i type="logical" name="LWAVE"> T  </i>
   <i type="logical" name="LCHARG"> T  </i>
   <i type="logical" name="LPARD"> F  </i>
   <i type="logical" name="LVTOT"> F  </i>
   <i type="logical" name="LVHAR"> F  </i>
   <i type="logical" name="LELF"> F  </i>
   <i type="logical" name="LOPTICS"> F  </i>
   <v name="STM">      0.00000000      0.00000000      0.00000000      0.00000000      0.00000000      0.00000000      0.00000000</v>
  </separator>
  <separator name="performance" >
   <i type="int" name="NPAR">     8</i>
   <i type="int" name="NSIM">     4</i>
   <i type="int" name="NBLK">    -1</i>
   <i type="logical" name="LPLANE"> T  </i>
   <i type="logical" name="LSCALAPACK"> T  </i>
   <i type="logical" name="LSCAAWARE"> F  </i>
   <i type="logical" name="LSCALU"> F  </i>
   <i type="logical" name="LASYNC"> F  </i>
   <i type="logical" name="LORBITALREAL"> F  </i>
  </separator>
  <separator name="miscellaneous" >
   <i type="int" name="IDIOT">     3</i>
   <i type="logical" name="LMUSIC"> F  </i>
   <v name="POMASS">     28.08500000</v>
   <v name="DARWINR">      0.00000000</v>
   <v name="DARWINV">      1.00000000</v>
   <i type="logical" name="LCORR"> T  </i>
  </separator>
  <i type="logical" name="GGA_COMPAT"> T  </i>
  <i type="logical" name="LBERRY"> F  </i>
  <i type="int" name="ICORELEVEL">     0</i>
  <i type="logical" name="LDAU"> F  </i>
  <i type="int" name="I_CONSTRAINED_M">     0</i>
  <separator name="electronic exchange-correlation" >
   <i type="string" name="GGA">--</i>
   <i type="int" name="VOSKOWN">     0</i>
   <i type="logical" name="LHFCALC"> F  </i>
   <i type="string" name="PRECFOCK"></i>
   <i type="logical" name="LSYMGRAD"> F  </i>
   <i type="logical" name="LHFONE"> F  </i>
   <i type="logical" name="LRHFCALC"> F  </i>
   <i type="logical" name="LTHOMAS"> F  </i>
   <i type="logical" name="LMODELHF"> F  </i>
   <i name="ENCUT4O">     -1.00000000</i>
   <i type="int" name="EXXOEP">     0</i>
   <i type="int" name="FOURORBIT">     0</i>
   <i name="AEXX">      0.00000000</i>
   <i name="HFALPHA">      0.00000000</i>
   <i name="MCALPHA">      0.00000000</i>
   <i name="ALDAX">      1.00000000</i>
   <i name="AGGAX">      1.00000000</i>
   <i name="ALDAC">      1.00000000</i>
   <i name="AGGAC">      1.00000000</i>
   <i type="int" name="NKREDX">     1</i>
   <i type="int" name="NKREDY">     1</i>
   <i type="int" name="NKREDZ">     1</i>
   <i type="logical" name="SHIFTRED"> F  </i>
   <i type="logical" name="ODDONLY"> F  </i>
   <i type="logical" name="EVENONLY"> F  </i>
   <i type="int" name="LMAXFOCK">     0</i>
   <i type="int" name="NMAXFOCKAE">     0</i>
   <i type="logical" name="LFOCKAEDFT"> F  </i>
   <i name="HFSCREEN">      0.00000000</i>
   <i name="HFSCREENC">      0.00000000</i>
   <i type="int" name="NBANDSGWLOW">     0</i>
  </separator>
  <separator name="vdW DFT" >
   <i type="logical" name="LUSE_VDW"> F  </i>
   <i name="Zab_VDW">     -0.84910000</i>
   <i name="PARAM1">      0.12340000</i>
   <i name="PARAM2">      1.00000000</i>
   <i name="PARAM3">      0.00000000</i>
  </separator>
  <separator name="model GW" >
   <i type="int" name="MODEL_GW">     0</i>
   <i name="MODEL_EPS0">     12.26874997</i>
   <i name="MODEL_ALPHA">      1.00000000</i>
  </separator>
  <separator name="linear response parameters" >
   <i type="logical" name="LEPSILON"> F  </i>
   <i type="logical" name="LRPA"> F  </i>
   <i type="logical" name="LNABLA"> F  </i>
   <i type="logical" name="LVEL"> F  </i>
   <i type="int" name="KINTER">     0</i>
   <i name="CSHIFT">      0.10000000</i>
   <i name="OMEGAMAX">     -1.00000000</i>
   <i name="DEG_THRESHOLD">      0.00200000</i>
  </separator>
  <separator name="orbital magnetization" >
   <i type="logical" name="NUCIND"> F  </i>
   <v name="MAGPOS">      0.00000000      0.00000000      0.00000000</v>
   <i type="logical" name="LNICSALL"> T  </i>
   <i type="logical" name="ORBITALMAG"> F  </i>
   <i type="logical" name="LMAGBLOCH"> F  </i>
   <i type="logical" name="LCHIMAG"> F  </i>
   <i type="logical" name="LGAUGE"> T  </i>
   <i type="int" name="MAGATOM">     0</i>
   <v name="MAGDIPOL">      0.00000000      0.00000000      0.00000000</v>
   <v name="AVECCONST">      0.00000000      0.00000000      0.00000000</v>
  </separator>
  <separator name="response functions" >
   <i type="logical" name="LADDER"> F  </i>
   <i type="logical" name="LFXC"> F  </i>
   <i type="logical" name="LHARTREE"> T  </i>
   <i type="int" name="IBSE">     0</i>
   <v type="int" name="KPOINT">    -1     0     0     0</v>
   <i type="logical" name="LTCTE"> F  </i>
   <i type="logical" name="LTETE"> F  </i>
   <i type="logical" name="LTRIPLET"> F  </i>
   <i type="logical" name="LFXCEPS"> F  </i>
   <i type="logical" name="LFXHEG"> F  </i>
   <i type="int" name="NATURALO">     0</i>
   <i type="logical" name="L2ORDER"> F  </i>
   <i type="logical" name="LUSEW"> F  </i>
   <i name="ENCUTGW">     -2.00000000</i>
   <i name="ENCUTGWSOFT">     -2.00000000</i>
   <i name="ENCUTLF">     -1.00000000</i>
   <i type="int" name="LMAXMP2">    -1</i>
   <i name="SCISSOR">      0.00000000</i>
   <i type="int" name="NOMEGA">     0</i>
   <i type="int" name="NOMEGAR">     0</i>
   <i type="int" name="NBANDSGW">    -1</i>
   <i type="int" name="NBANDSO">    -1</i>
   <i type="int" name="NBANDSV">    -1</i>
   <i type="int" name="NELM">     1</i>
   <i type="int" name="NELMHF">     1</i>
   <i type="int" name="DIM">     3</i>
   <i type="int" name="ANTIRES">     0</i>
   <i name="OMEGAMAX">    -30.00000000</i>
   <i name="OMEGAMIN">    -30.00000000</i>
   <i name="OMEGATL">   -200.00000000</i>
   <i type="int" name="OMEGAGRID">     0</i>
   <i name="CSHIFT">     -0.10000000</i>
   <i type="logical" name="SELFENERGY"> F  </i>
   <i type="logical" name="LSPECTRAL"> F  </i>
   <i type="logical" name="LSPECTRALGW"> F  </i>
   <i type="logical" name="LSINGLES"> F  </i>
   <i type="logical" name="LFERMIGW"> F  </i>
   <i type="logical" name="ODDONLYGW"> F  </i>
   <i type="logical" name="EVENONLYGW"> F  </i>
   <i type="int" name="NKREDLFX">     1</i>
   <i type="int" name="NKREDLFY">     1</i>
   <i type="int" name="NKREDLFZ">     1</i>
   <i type="int" name="MAXMEM">  1800</i>
   <i type="int" name="TELESCOPE">     0</i>
   <i type="int" name="TAUPAR">     1</i>
   <i type="int" name="OMEGAPAR">    -1</i>
   <i name="LAMBDA">      1.00000000</i>
  </separator>
  <separator name="External order field" >
   <i name="OFIELD_KAPPA">      0.00000000</i>
   <v name="OFIELD_K">      0.00000000      0.00000000      0.00000000</v>
   <i name="OFIELD_Q6_NEAR">      0.00000000</i>
   <i name="OFIELD_Q6_FAR">      0.00000000</i>
   <i name="OFIELD_A">      0.00000000</i>
  </separator>
 </parameters>
 <atominfo>
  <atoms>       8 </atoms>
  <types>       1 </types>
  <array name="atoms" >
   <dimension dim="1">ion</dimension>
   <field type="string">element</field>
   <field type="int">atomtype</field>
   <set>
    <rc><c>Si</c><c>   1</c></rc>
    <rc><c>Si</c><c>   1</c></rc>
    <rc><c>Si</c><c>   1</c></rc>
    <rc><c>Si</c><c>   1</c></rc>
    <rc><c>Si</c><c>   1</c></rc>
    <rc><c>Si</c><c>   1</c></rc>
    <rc><c>Si</c><c>   1</c></rc>
    <rc><c>Si</c><c>   1</c></rc>
   </set>
  </array>
  <array name="atomtypes" >
   <dimension dim="1">type</dimension>
   <field type="int">atomspertype</field>
   <field type="string">element</field>
   <field>mass</field>
   <field>valence</field>
   <field type="string">pseudopotential</field>
   <set>
    <rc><c>   8</c><c>Si</c><c>     28.08500000</c><c>      4.00000000</c><c>  PAW_PBE Si 05Jan2001                  </c></rc>
   </set>
  </array>
 </atominfo>
 <structure name="initialpos" >
  <crystal>
   <varray name="basis" >
    <v>       5.46906415       0.00000000       0.00000000 </v>
    <v>       0.00000000       5.46906415       0.00000000 </v>
    <v>       0.00000000       0.00000000       5.46906415 </v>
   </varray>
   <i name="volume">    163.58333295 </i>
   <varray name="rec_basis" >
    <v>       0.18284664       0.00000000       0.00000000 </v>
    <v>       0.00000000       0.18284664       0.00000000 </v>
    <v>       0.00000000       0.00000000       0.18284664 </v>
   </varray>
  </crystal>
  <varray name="positions" >
   <v>       0.00000000       0.00000000       0.00000000 </v>
   <v>       0.25000000       0.25000000       0.25000000 </v>
   <v>       0.50000000       0.50000000       0.00000000 </v>
   <v>       0.75000000       0.75000000       0.25000000 </v>
   <v>       0.50000000       0.00000000       0.50000000 </v>
   <v>       0.75000000       0.25000000       0.75000000 </v>
   <v>       0.00000000       0.50000000       0.50000000 </v>
   <v>       0.25000000       0.75000000       0.75000000 </v>
  </varray>
 </structure>
 <calculation>
  <scstep>
   <time name="dav">    0.86    0.92</time>
   <time name="total">    0.95    1.00</time>
   <energy>
    <i name="alphaZ">     13.17029267 </i>
    <i name="ewald">   -907.72384517 </i>
    <i name="hartreedc">    -45.30478790 </i>
    <i name="XCdc">    -74.74358125 </i>
    <i name="pawpsdc">    704.99039692 </i>
    <i name="pawaedc">   -564.24414232 </i>
    <i name="eentropy">     -0.00069080 </i>
    <i name="bandstr">    103.03900212 </i>
    <i name="atom">    824.52596983 </i>
    <i name="e_fr_energy">     53.70861409 </i>
    <i name="e_wo_entrp">     53.70930489 </i>
    <i name="e_0_energy">     53.70878679 </i>
   </energy>
  </scstep>
  <scstep>
   <time name="dav">    1.03    1.04</time>
   <time name="total">    1.04    1.07</time>
   <energy>
    <i name="e_fr_energy">    -39.82182646 </i>
    <i name="e_wo_entrp">    -39.82233092 </i>
    <i name="e_0_energy">    -39.82195258 </i>
   </energy>
  </scstep>
  <scstep>
   <time name="dav">    1.04    1.04</time>
   <time name="total">    1.04    1.06</time>
   <energy>
    <i name="e_fr_energy">    -43.99848223 </i>
    <i name="e_wo_entrp">    -43.99856930 </i>
    <i name="e_0_energy">    -43.99850399 </i>
   </energy>
  </scstep>
  <scstep>
   <time name="dav">    0.96    0.96</time>
   <time name="total">    0.96    0.97</time>
   <energy>
    <i name="e_fr_energy">    -44.06847432 </i>
    <i name="e_wo_entrp">    -44.06856123 </i>
    <i name="e_0_energy">    -44.06849605 </i>
   </energy>
  </scstep>
  <scstep>
   <time name="dav">    1.04    1.05</time>
   <time name="total">    1.14    1.15</time>
   <energy>
    <i name="e_fr_energy">    -44.07033207 </i>
    <i name="e_wo_entrp">    -44.07041886 </i>
    <i name="e_0_energy">    -44.07035377 </i>
   </energy>
  </scstep>
  <scstep>
   <time name="dav">    0.95    0.95</time>
   <time name="total">    1.03    1.06</time>
   <energy>
    <i name="e_fr_energy">    -43.60718687 </i>
    <i name="e_wo_entrp">    -43.60728084 </i>
    <i name="e_0_energy">    -43.60721036 </i>
   </energy>
  </scstep>
  <scstep>
   <time name="dav">    0.93    0.94</time>
   <time name="total">    1.05    1.05</time>
   <energy>
    <i name="e_fr_energy">    -43.39325987 </i>
    <i name="e_wo_entrp">    -43.39336554 </i>
    <i name="e_0_energy">    -43.39328629 </i>
   </energy>
  </scstep>
  <scstep>
   <time name="dav">    0.99    0.98</time>
   <time name="total">    1.07    1.09</time>
   <energy>
    <i name="e_fr_energy">    -43.39780454 </i>
    <i name="e_wo_entrp">    -43.39790989 </i>
    <i name="e_0_energy">    -43.39783088 </i>
   </energy>
  </scstep>
  <scstep>
   <time name="dav">    1.01    1.02</time>
   <time name="total">    1.11    1.13</time>
   <energy>
    <i name="e_fr_energy">    -43.39862099 </i>
    <i name="e_wo_entrp">    -43.39872676 </i>
    <i name="e_0_energy">    -43.39864744 </i>
   </energy>
  </scstep>
  <scstep>
   <time name="dav">    0.95    0.94</time>
   <time name="total">    1.05    1.06</time>
   <energy>
    <i name="e_fr_energy">    -43.39884102 </i>
    <i name="e_wo_entrp">    -43.39894692 </i>
    <i name="e_0_energy">    -43.39886749 </i>
   </energy>
  </scstep>
  <scstep>
   <time name="dav">    0.72    0.72</time>
   <time name="total">    0.77    0.77</time>
   <energy>
    <i name="alphaZ">     13.17029267 </i>
    <i name="ewald">   -907.72384517 </i>
    <i name="hartreedc">    -60.68665108 </i>
    <i name="XCdc">    -72.23987993 </i>
    <i name="pawpsdc">   3310.34740959 </i>
    <i name="pawaedc">  -3170.42294042 </i>
    <i name="eentropy">      0.00010589 </i>
    <i name="bandstr">     19.63069671 </i>
    <i name="atom">    824.52596983 </i>
    <i name="e_fr_energy">    -43.39884192 </i>
    <i name="e_wo_entrp">    -43.39894781 </i>
    <i name="e_0_energy">    -43.39886839 </i>
   </energy>
  </scstep>
  <structure>
   <crystal>
    <varray name="basis" >
     <v>       5.46906415       0.00000000       0.00000000 </v>
     <v>       0.00000000       5.46906415       0.00000000 </v>
     <v>       0.00000000       0.00000000       5.46906415 </v>
    </varray>
    <i name="volume">    163.58333295 </i>
    <varray name="rec_basis" >
     <v>       0.18284664       0.00000000       0.00000000 </v>
     <v>       0.00000000       0.18284664       0.00000000 </v>
     <v>       0.00000000       0.00000000       0.18284664 </v>
    </varray>
   </crystal>
   <varray name="positions" >
    <v>       0.00000000       0.00000000       0.00000000 </v>
    <v>       0.25000000       0.25000000       0.25000000 </v>
    <v>       0.50000000       0.50000000       0.00000000 </v>
    <v>       0.75000000       0.75000000       0.25000000 </v>
    <v>       0.50000000       0.00000000       0.50000000 </v>
    <v>       0.75000000       0.25000000       0.75000000 </v>
    <v>       0.00000000       0.50000000       0.50000000 </v>
    <v>       0.25000000       0.75000000       0.75000000 </v>
   </varray>
  </structure>
  <varray name="forces" >
   <v>       0.00000000       0.00000000       0.00000000 </v>
   <v>       0.00000000       0.00000000       0.00000000 </v>
   <v>       0.00000000       0.00000000       0.00000000 </v>
   <v>       0.00000000       0.00000000       0.00000000 </v>
   <v>       0.00000000       0.00000000       0.00000000 </v>
   <v>       0.00000000       0.00000000       0.00000000 </v>
   <v>       0.00000000       0.00000000       0.00000000 </v>
   <v>       0.00000000       0.00000000       0.00000000 </v>
  </varray>
  <varray name="stress" >
   <v>      -0.23452323       0.00000000       0.00000000 </v>
   <v>       0.00000000      -0.23452323       0.00000000 </v>
   <v>       0.00000000       0.00000000      -0.23452323 </v>
  </varray>
  <energy>
   <i name="e_fr_energy">    -43.39884192 </i>
   <i name="e_wo_entrp">    -43.39886839 </i>
   <i name="e_0_energy">      0.00010589 </i>
  </energy>
  <time name="totalsc">   13.07   13.34</time>
  <eigenvalues>
   <array>
    <dimension dim="1">band</dimension>
    <dimension dim="2">kpoint</dimension>
    <dimension dim="3">spin</dimension>
    <field>eigene</field>
    <field>occ</field>
    <set>
     <set comment="spin 1">
      <set comment="kpoint 1">
       <r>   -6.1995    1.0000 </r>
       <r>   -2.1318    1.0000 </r>
       <r>   -2.1318    1.0000 </r>
       <r>   -2.1318    1.0000 </r>
       <r>   -2.1318    1.0000 </r>
       <r>   -2.1318    1.0000 </r>
       <r>   -2.1318    1.0000 </r>
       <r>    2.8203    1.0000 </r>
       <r>    2.8203    1.0000 </r>
       <r>    2.8203    1.0000 </r>
       <r>    2.8203    1.0000 </r>
       <r>    2.8203    1.0000 </r>
       <r>    2.8203    1.0000 </r>
       <r>    5.6139    0.8373 </r>
       <r>    5.6139    0.8373 </r>
       <r>    5.6139    0.8373 </r>
       <r>    6.3663    0.0000 </r>
       <r>    6.3663    0.0000 </r>
       <r>    6.3663    0.0000 </r>
       <r>    6.3663    0.0000 </r>
       <r>    6.3663    0.0000 </r>
       <r>    6.3663    0.0000 </r>
       <r>    8.1712    0.0000 </r>
       <r>    8.1712    0.0000 </r>
      </set>
      <set comment="kpoint 2">
       <r>   -6.1465    1.0000 </r>
       <r>   -2.9419    1.0000 </r>
       <r>   -2.1151    1.0000 </r>
       <r>   -2.1151    1.0000 </r>
       <r>   -2.1151    1.0000 </r>
       <r>   -2.1151    1.0000 </r>
       <r>   -1.2584    1.0000 </r>
       <r>    2.6746    1.0000 </r>
       <r>    2.6746    1.0000 </r>
       <r>    2.6746    1.0000 </r>
       <r>    2.6746    1.0000 </r>
       <r>    2.8682    1.0000 </r>
       <r>    2.8682    1.0000 </r>
       <r>    5.2641    1.0000 </r>
       <r>    5.4072    0.9974 </r>
       <r>    5.4072    0.9974 </r>
       <r>    6.2379    0.0000 </r>
       <r>    6.6383    0.0000 </r>
       <r>    6.6470    0.0000 </r>
       <r>    6.6470    0.0000 </r>
       <r>    6.6470    0.0000 </r>
       <r>    6.6470    0.0000 </r>
       <r>    8.0447    0.0000 </r>
       <r>    8.4433    0.0000 </r>
      </set>
      <set comment="kpoint 3">
       <r>   -5.9877    1.0000 </r>
       <r>   -3.6777    1.0000 </r>
       <r>   -2.0713    1.0000 </r>
       <r>   -2.0713    1.0000 </r>
       <r>   -2.0713    1.0000 </r>
       <r>   -2.0713    1.0000 </r>
       <r>   -0.3349    1.0000 </r>
       <r>    2.3581    1.0000 </r>
       <r>    2.3581    1.0000 </r>
       <r>    2.3581    1.0000 </r>
       <r>    2.3581    1.0000 </r>
       <r>    3.0113    1.0000 </r>
       <r>    3.0113    1.0000 </r>
       <r>    4.4851    1.0000 </r>
       <r>    4.9536    1.0000 </r>
       <r>    4.9536    1.0000 </r>
       <r>    6.2439    0.0000 </r>
       <r>    7.0610    0.0000 </r>
       <r>    7.3721    0.0000 </r>
       <r>    7.3721    0.0000 </r>
       <r>    7.3721    0.0000 </r>
       <r>    7.3721    0.0000 </r>
       <r>    7.7261    0.0000 </r>
       <r>    9.0915    0.0000 </r>
      </set>
      <set comment="kpoint 4">
       <r>   -5.7241    1.0000 </r>
       <r>   -4.3300    1.0000 </r>
       <r>   -2.0186    1.0000 </r>
       <r>   -2.0186    1.0000 </r>
       <r>   -2.0186    1.0000 </r>
       <r>   -2.0186    1.0000 </r>
       <r>    0.6238    1.0000 </r>
       <r>    2.0548    1.0000 </r>
       <r>    2.0548    1.0000 </r>
       <r>    2.0548    1.0000 </r>
       <r>    2.0548    1.0000 </r>
       <r>    3.2474    1.0000 </r>
       <r>    3.2474    1.0000 </r>
       <r>    3.5597    1.0000 </r>
       <r>    4.4494    1.0000 </r>
       <r>    4.4494    1.0000 </r>
       <r>    6.3729    0.0000 </r>
       <r>    7.3290    0.0000 </r>
       <r>    7.6363    0.0000 </r>
       <r>    8.3661    0.0000 </r>
       <r>    8.3661    0.0000 </r>
       <r>    8.3661    0.0000 </r>
       <r>    8.3661    0.0000 </r>
       <r>    9.8260    0.0000 </r>
      </set>
      <set comment="kpoint 5">
       <r>   -5.3579    1.0000 </r>
       <r>   -4.8919    1.0000 </r>
       <r>   -1.9823    1.0000 </r>
       <r>   -1.9823    1.0000 </r>
       <r>   -1.9823    1.0000 </r>
       <r>   -1.9823    1.0000 </r>
       <r>    1.6030    1.0000 </r>
       <r>    1.8771    1.0000 </r>
       <r>    1.8771    1.0000 </r>
       <r>    1.8771    1.0000 </r>
       <r>    1.8771    1.0000 </r>
       <r>    2.5875    1.0000 </r>
       <r>    3.5723    1.0000 </r>
       <r>    3.5723    1.0000 </r>
       <r>    3.9780    1.0000 </r>
       <r>    3.9780    1.0000 </r>
       <r>    6.6116    0.0000 </r>
       <r>    6.9402    0.0000 </r>
       <r>    8.3527    0.0000 </r>
       <r>    9.1570    0.0000 </r>
       <r>    9.4967    0.0000 </r>
       <r>    9.4967    0.0000 </r>
       <r>    9.4967    0.0000 </r>
       <r>    9.4967    0.0000 </r>
      </set>
      <set comment="kpoint 6">
       <r>   -6.0936    1.0000 </r>
       <r>   -2.9128    1.0000 </r>
       <r>   -2.9128    1.0000 </r>
       <r>   -2.1863    1.0000 </r>
       <r>   -2.0165    1.0000 </r>
       <r>   -1.2608    1.0000 </r>
       <r>   -1.2608    1.0000 </r>
       <r>    2.2713    1.0000 </r>
       <r>    2.6965    1.0000 </r>
       <r>    2.6965    1.0000 </r>
       <r>    2.7580    1.0000 </r>
       <r>    2.7580    1.0000 </r>
       <r>    2.9049    1.0000 </r>
       <r>    4.7380    1.0000 </r>
       <r>    5.1998    1.0000 </r>
       <r>    5.5645    1.0465 </r>
       <r>    6.4637    0.0000 </r>
       <r>    6.5328    0.0000 </r>
       <r>    6.5328    0.0000 </r>
       <r>    6.9007    0.0000 </r>
       <r>    6.9007    0.0000 </r>
       <r>    7.2781    0.0000 </r>
       <r>    8.2806    0.0000 </r>
       <r>    8.3636    0.0000 </r>
      </set>
      <set comment="kpoint 7">
       <r>   -5.9354    1.0000 </r>
       <r>   -3.6403    1.0000 </r>
       <r>   -2.8295    1.0000 </r>
       <r>   -2.2473    1.0000 </r>
       <r>   -1.8848    1.0000 </r>
       <r>   -1.2761    1.0000 </r>
       <r>   -0.3669    1.0000 </r>
       <r>    1.8803    1.0000 </r>
       <r>    2.3200    1.0000 </r>
       <r>    2.5266    1.0000 </r>
       <r>    2.8211    1.0000 </r>
       <r>    2.8440    1.0000 </r>
       <r>    2.9486    1.0000 </r>
       <r>    4.0010    1.0000 </r>
       <r>    4.7437    1.0000 </r>
       <r>    5.2758    1.0000 </r>
       <r>    6.5485    0.0000 </r>
       <r>    6.8383    0.0000 </r>
       <r>    7.2808    0.0000 </r>
       <r>    7.3018    0.0000 </r>
       <r>    7.5933    0.0000 </r>
       <r>    8.0101    0.0000 </r>
       <r>    8.1865    0.0000 </r>
       <r>    8.7337    0.0000 </r>
      </set>
      <set comment="kpoint 8">
       <r>   -5.6730    1.0000 </r>
       <r>   -4.2870    1.0000 </r>
       <r>   -2.7054    1.0000 </r>
       <r>   -2.3218    1.0000 </r>
       <r>   -1.7272    1.0000 </r>
       <r>   -1.3240    1.0000 </r>
       <r>    0.5465    1.0000 </r>
       <r>    1.6173    1.0000 </r>
       <r>    1.9351    1.0000 </r>
       <r>    2.3361    1.0000 </r>
       <r>    2.6124    1.0000 </r>
       <r>    3.0449    1.0000 </r>
       <r>    3.1965    1.0000 </r>
       <r>    3.2476    1.0000 </r>
       <r>    4.2370    1.0000 </r>
       <r>    4.7301    1.0000 </r>
       <r>    6.6828    0.0000 </r>
       <r>    7.6261    0.0000 </r>
       <r>    7.6481    0.0000 </r>
       <r>    7.8531    0.0000 </r>
       <r>    8.2912    0.0000 </r>
       <r>    8.5600    0.0000 </r>
       <r>    9.2668    0.0000 </r>
       <r>    9.3551    0.0000 </r>
      </set>
      <set comment="kpoint 9">
       <r>   -5.3086    1.0000 </r>
       <r>   -4.8451    1.0000 </r>
       <r>   -2.5622    1.0000 </r>
       <r>   -2.4274    1.0000 </r>
       <r>   -1.5632    1.0000 </r>
       <r>   -1.4209    1.0000 </r>
       <r>    1.4575    1.0000 </r>
       <r>    1.5387    1.0000 </r>
       <r>    1.6541    1.0000 </r>
       <r>    2.2833    1.0000 </r>
       <r>    2.3457    1.0000 </r>
       <r>    2.3897    1.0000 </r>
       <r>    3.3625    1.0000 </r>
       <r>    3.6538    1.0000 </r>
       <r>    3.7652    1.0000 </r>
       <r>    4.1584    1.0000 </r>
       <r>    6.9217    0.0000 </r>
       <r>    7.2461    0.0000 </r>
       <r>    8.5426    0.0000 </r>
       <r>    8.7109    0.0000 </r>
       <r>    9.2928    0.0000 </r>
       <r>    9.4513    0.0000 </r>
       <r>    9.5628    0.0000 </r>
       <r>   10.1865    0.0000 </r>
      </set>
      <set comment="kpoint 10">
       <r>   -5.7792    1.0000 </r>
       <r>   -3.5308    1.0000 </r>
       <r>   -3.5308    1.0000 </r>
       <r>   -2.4353    1.0000 </r>
       <r>   -1.6714    1.0000 </r>
       <r>   -0.4684    1.0000 </r>
       <r>   -0.4684    1.0000 </r>
       <r>    1.5284    1.0000 </r>
       <r>    2.4036    1.0000 </r>
       <r>    2.4036    1.0000 </r>
       <r>    2.8328    1.0000 </r>
       <r>    2.8328    1.0000 </r>
       <r>    3.1530    1.0000 </r>
       <r>    3.2971    1.0000 </r>
       <r>    4.2818    1.0000 </r>
       <r>    5.3919    0.9983 </r>
       <r>    6.7499    0.0000 </r>
       <r>    7.3099    0.0000 </r>
       <r>    7.3099    0.0000 </r>
       <r>    7.9529    0.0000 </r>
       <r>    7.9529    0.0000 </r>
       <r>    8.5532    0.0000 </r>
       <r>    8.6079    0.0000 </r>
       <r>    8.8068    0.0000 </r>
      </set>
      <set comment="kpoint 11">
       <r>   -5.5203    1.0000 </r>
       <r>   -4.1599    1.0000 </r>
       <r>   -3.3579    1.0000 </r>
       <r>   -2.6515    1.0000 </r>
       <r>   -1.4259    1.0000 </r>
       <r>   -0.6456    1.0000 </r>
       <r>    0.3275    1.0000 </r>
       <r>    1.3614    1.0000 </r>
       <r>    1.9633    1.0000 </r>
       <r>    2.5714    1.0000 </r>
       <r>    2.6008    1.0000 </r>
       <r>    2.7825    1.0000 </r>
       <r>    3.1705    1.0000 </r>
       <r>    3.2769    1.0000 </r>
       <r>    3.7705    1.0000 </r>
       <r>    5.0546    1.0000 </r>
       <r>    7.2078    0.0000 </r>
       <r>    7.4481    0.0000 </r>
       <r>    8.3260    0.0000 </r>
       <r>    8.3422    0.0000 </r>
       <r>    8.4551    0.0000 </r>
       <r>    8.8406    0.0000 </r>
       <r>    8.8810    0.0000 </r>
       <r>    9.6063    0.0000 </r>
      </set>
      <set comment="kpoint 12">
       <r>   -5.1613    1.0000 </r>
       <r>   -4.7060    1.0000 </r>
       <r>   -3.1374    1.0000 </r>
       <r>   -2.8927    1.0000 </r>
       <r>   -1.1567    1.0000 </r>
       <r>   -0.8855    1.0000 </r>
       <r>    1.0968    1.0000 </r>
       <r>    1.3939    1.0000 </r>
       <r>    1.6074    1.0000 </r>
       <r>    1.8407    1.0000 </r>
       <r>    2.8510    1.0000 </r>
       <r>    2.9029    1.0000 </r>
       <r>    3.0129    1.0000 </r>
       <r>    3.2988    1.0000 </r>
       <r>    3.8400    1.0000 </r>
       <r>    4.4688    1.0000 </r>
       <r>    7.6815    0.0000 </r>
       <r>    7.9903    0.0000 </r>
       <r>    8.0854    0.0000 </r>
       <r>    9.0824    0.0000 </r>
       <r>    9.1795    0.0000 </r>
       <r>    9.3600    0.0000 </r>
       <r>    9.4910    0.0000 </r>
       <r>   10.0181    0.0000 </r>
      </set>
      <set comment="kpoint 13">
       <r>   -5.2678    1.0000 </r>
       <r>   -3.9542    1.0000 </r>
       <r>   -3.9542    1.0000 </r>
       <r>   -3.0035    1.0000 </r>
       <r>   -1.0990    1.0000 </r>
       <r>    0.0064    1.0000 </r>
       <r>    0.0064    1.0000 </r>
       <r>    1.3044    1.0000 </r>
       <r>    1.9171    1.0000 </r>
       <r>    2.1246    1.0000 </r>
       <r>    2.1246    1.0000 </r>
       <r>    3.2574    1.0000 </r>
       <r>    3.3712    1.0000 </r>
       <r>    3.3712    1.0000 </r>
       <r>    3.5454    1.0000 </r>
       <r>    5.0573    1.0000 </r>
       <r>    7.2025    0.0000 </r>
       <r>    8.4595    0.0000 </r>
       <r>    8.4595    0.0000 </r>
       <r>    8.5925    0.0000 </r>
       <r>    9.1514    0.0000 </r>
       <r>    9.3344    0.0000 </r>
       <r>    9.3344    0.0000 </r>
       <r>    9.4252    0.0000 </r>
      </set>
      <set comment="kpoint 14">
       <r>   -4.9187    1.0000 </r>
       <r>   -4.4783    1.0000 </r>
       <r>   -3.6806    1.0000 </r>
       <r>   -3.3558    1.0000 </r>
       <r>   -0.7420    1.0000 </r>
       <r>   -0.3647    1.0000 </r>
       <r>    0.6399    1.0000 </r>
       <r>    1.2724    1.0000 </r>
       <r>    1.4328    1.0000 </r>
       <r>    1.7181    1.0000 </r>
       <r>    2.4049    1.0000 </r>
       <r>    2.7893    1.0000 </r>
       <r>    3.5150    1.0000 </r>
       <r>    3.6248    1.0000 </r>
       <r>    4.0380    1.0000 </r>
       <r>    4.6633    1.0000 </r>
       <r>    7.7212    0.0000 </r>
       <r>    8.6354    0.0000 </r>
       <r>    8.6766    0.0000 </r>
       <r>    8.7366    0.0000 </r>
       <r>    8.9538    0.0000 </r>
       <r>    9.1734    0.0000 </r>
       <r>    9.6132    0.0000 </r>
       <r>    9.9279    0.0000 </r>
      </set>
      <set comment="kpoint 15">
       <r>   -4.5854    1.0000 </r>
       <r>   -4.1689    1.0000 </r>
       <r>   -4.1689    1.0000 </r>
       <r>   -3.7890    1.0000 </r>
       <r>   -0.3039    1.0000 </r>
       <r>    0.1609    1.0000 </r>
       <r>    0.1609    1.0000 </r>
       <r>    0.7061    1.0000 </r>
       <r>    1.6322    1.0000 </r>
       <r>    1.9661    1.0000 </r>
       <r>    1.9661    1.0000 </r>
       <r>    2.3313    1.0000 </r>
       <r>    4.0432    1.0000 </r>
       <r>    4.1521    1.0000 </r>
       <r>    4.1521    1.0000 </r>
       <r>    4.5790    1.0000 </r>
       <r>    7.7656    0.0000 </r>
       <r>    8.2950    0.0000 </r>
       <r>    8.2950    0.0000 </r>
       <r>    8.3072    0.0000 </r>
       <r>    9.8007    0.0000 </r>
       <r>    9.8007    0.0000 </r>
       <r>    9.9075    0.0000 </r>
       <r>   10.2268    0.0000 </r>
      </set>
      <set comment="kpoint 16">
       <r>   -6.0410    1.0000 </r>
       <r>   -2.8893    1.0000 </r>
       <r>   -2.8893    1.0000 </r>
       <r>   -2.8893    1.0000 </r>
       <r>   -1.2652    1.0000 </r>
       <r>   -1.2652    1.0000 </r>
       <r>   -1.2652    1.0000 </r>
       <r>    2.3382    1.0000 </r>
       <r>    2.3382    1.0000 </r>
       <r>    2.3382    1.0000 </r>
       <r>    2.9520    1.0000 </r>
       <r>    2.9520    1.0000 </r>
       <r>    2.9520    1.0000 </r>
       <r>    4.2749    1.0000 </r>
       <r>    5.3818    0.9988 </r>
       <r>    5.3818    0.9988 </r>
       <r>    6.5006    0.0000 </r>
       <r>    6.5006    0.0000 </r>
       <r>    6.5006    0.0000 </r>
       <r>    7.3791    0.0000 </r>
       <r>    7.3791    0.0000 </r>
       <r>    7.3791    0.0000 </r>
       <r>    8.1032    0.0000 </r>
       <r>    8.5134    0.0000 </r>
      </set>
      <set comment="kpoint 17">
       <r>   -5.8835    1.0000 </r>
       <r>   -3.6054    1.0000 </r>
       <r>   -2.8261    1.0000 </r>
       <r>   -2.8261    1.0000 </r>
       <r>   -1.2822    1.0000 </r>
       <r>   -1.2822    1.0000 </r>
       <r>   -0.4094    1.0000 </r>
       <r>    1.9649    1.0000 </r>
       <r>    1.9649    1.0000 </r>
       <r>    2.5405    1.0000 </r>
       <r>    2.9008    1.0000 </r>
       <r>    2.9008    1.0000 </r>
       <r>    3.0926    1.0000 </r>
       <r>    3.5691    1.0000 </r>
       <r>    4.9656    1.0000 </r>
       <r>    5.1830    1.0000 </r>
       <r>    6.6155    0.0000 </r>
       <r>    6.8904    0.0000 </r>
       <r>    6.8904    0.0000 </r>
       <r>    7.6757    0.0000 </r>
       <r>    8.0979    0.0000 </r>
       <r>    8.2648    0.0000 </r>
       <r>    8.2648    0.0000 </r>
       <r>    8.5110    0.0000 </r>
      </set>
      <set comment="kpoint 18">
       <r>   -5.6223    1.0000 </r>
       <r>   -4.2455    1.0000 </r>
       <r>   -2.7460    1.0000 </r>
       <r>   -2.7460    1.0000 </r>
       <r>   -1.3141    1.0000 </r>
       <r>   -1.3141    1.0000 </r>
       <r>    0.4476    1.0000 </r>
       <r>    1.7063    1.0000 </r>
       <r>    1.7063    1.0000 </r>
       <r>    2.7020    1.0000 </r>
       <r>    2.7020    1.0000 </r>
       <r>    2.8298    1.0000 </r>
       <r>    2.8818    1.0000 </r>
       <r>    3.3240    1.0000 </r>
       <r>    4.4888    1.0000 </r>
       <r>    4.6142    1.0000 </r>
       <r>    6.8141    0.0000 </r>
       <r>    7.6996    0.0000 </r>
       <r>    7.6996    0.0000 </r>
       <r>    7.8114    0.0000 </r>
       <r>    8.1537    0.0000 </r>
       <r>    9.0774    0.0000 </r>
       <r>    9.3336    0.0000 </r>
       <r>    9.3336    0.0000 </r>
      </set>
      <set comment="kpoint 19">
       <r>   -5.2598    1.0000 </r>
       <r>   -4.7992    1.0000 </r>
       <r>   -2.6877    1.0000 </r>
       <r>   -2.6877    1.0000 </r>
       <r>   -1.3443    1.0000 </r>
       <r>   -1.3443    1.0000 </r>
       <r>    1.2789    1.0000 </r>
       <r>    1.5864    1.0000 </r>
       <r>    1.5864    1.0000 </r>
       <r>    2.0708    1.0000 </r>
       <r>    2.5462    1.0000 </r>
       <r>    2.5462    1.0000 </r>
       <r>    3.3615    1.0000 </r>
       <r>    3.6413    1.0000 </r>
       <r>    3.9595    1.0000 </r>
       <r>    4.0354    1.0000 </r>
       <r>    7.0933    0.0000 </r>
       <r>    7.4376    0.0000 </r>
       <r>    8.7578    0.0000 </r>
       <r>    8.7578    0.0000 </r>
       <r>    8.7875    0.0000 </r>
       <r>    9.4355    0.0000 </r>
       <r>    9.9494    0.0000 </r>
       <r>    9.9494    0.0000 </r>
      </set>
      <set comment="kpoint 20">
       <r>   -5.7280    1.0000 </r>
       <r>   -3.5048    1.0000 </r>
       <r>   -3.5048    1.0000 </r>
       <r>   -2.8302    1.0000 </r>
       <r>   -1.2889    1.0000 </r>
       <r>   -0.5370    1.0000 </r>
       <r>   -0.5370    1.0000 </r>
       <r>    1.6587    1.0000 </r>
       <r>    2.2153    1.0000 </r>
       <r>    2.2153    1.0000 </r>
       <r>    2.8887    1.0000 </r>
       <r>    3.0742    1.0000 </r>
       <r>    3.0742    1.0000 </r>
       <r>    3.1973    1.0000 </r>
       <r>    4.6296    1.0000 </r>
       <r>    5.2706    1.0000 </r>
       <r>    6.8120    0.0000 </r>
       <r>    7.0432    0.0000 </r>
       <r>    7.0432    0.0000 </r>
       <r>    8.0689    0.0000 </r>
       <r>    8.5018    0.0000 </r>
       <r>    8.5018    0.0000 </r>
       <r>    8.7273    0.0000 </r>
       <r>    9.0611    0.0000 </r>
      </set>
      <set comment="kpoint 21">
       <r>   -5.4707    1.0000 </r>
       <r>   -4.1231    1.0000 </r>
       <r>   -3.3511    1.0000 </r>
       <r>   -2.8782    1.0000 </r>
       <r>   -1.2587    1.0000 </r>
       <r>   -0.7355    1.0000 </r>
       <r>    0.1823    1.0000 </r>
       <r>    1.5311    1.0000 </r>
       <r>    1.9495    1.0000 </r>
       <r>    2.2004    1.0000 </r>
       <r>    2.6108    1.0000 </r>
       <r>    2.9792    1.0000 </r>
       <r>    3.2218    1.0000 </r>
       <r>    3.3755    1.0000 </r>
       <r>    4.1285    1.0000 </r>
       <r>    4.9542    1.0000 </r>
       <r>    7.2668    0.0000 </r>
       <r>    7.2854    0.0000 </r>
       <r>    7.8506    0.0000 </r>
       <r>    8.1767    0.0000 </r>
       <r>    8.7824    0.0000 </r>
       <r>    8.9005    0.0000 </r>
       <r>    9.5336    0.0000 </r>
       <r>    9.5942    0.0000 </r>
      </set>
      <set comment="kpoint 22">
       <r>   -5.1142    1.0000 </r>
       <r>   -4.6629    1.0000 </r>
       <r>   -3.1688    1.0000 </r>
       <r>   -2.9966    1.0000 </r>
       <r>   -1.1492    1.0000 </r>
       <r>   -0.9598    1.0000 </r>
       <r>    0.8651    1.0000 </r>
       <r>    1.5295    1.0000 </r>
       <r>    1.5718    1.0000 </r>
       <r>    1.7300    1.0000 </r>
       <r>    2.9745    1.0000 </r>
       <r>    3.0885    1.0000 </r>
       <r>    3.0965    1.0000 </r>
       <r>    3.6101    1.0000 </r>
       <r>    3.8205    1.0000 </r>
       <r>    4.3875    1.0000 </r>
       <r>    7.5969    0.0000 </r>
       <r>    7.9396    0.0000 </r>
       <r>    8.1367    0.0000 </r>
       <r>    8.8944    0.0000 </r>
       <r>    9.2595    0.0000 </r>
       <r>    9.3189    0.0000 </r>
       <r>    9.4386    0.0000 </r>
       <r>   10.1055    0.0000 </r>
      </set>
      <set comment="kpoint 23">
       <r>   -5.2204    1.0000 </r>
       <r>   -3.9273    1.0000 </r>
       <r>   -3.9273    1.0000 </r>
       <r>   -3.1031    1.0000 </r>
       <r>   -1.1147    1.0000 </r>
       <r>   -0.1743    1.0000 </r>
       <r>   -0.1743    1.0000 </r>
       <r>    1.5366    1.0000 </r>
       <r>    1.5599    1.0000 </r>
       <r>    2.2929    1.0000 </r>
       <r>    2.2929    1.0000 </r>
       <r>    3.4453    1.0000 </r>
       <r>    3.4453    1.0000 </r>
       <r>    3.5834    1.0000 </r>
       <r>    3.6370    1.0000 </r>
       <r>    5.0053    1.0000 </r>
       <r>    7.2601    0.0000 </r>
       <r>    8.0870    0.0000 </r>
       <r>    8.0870    0.0000 </r>
       <r>    8.2768    0.0000 </r>
       <r>    9.1064    0.0000 </r>
       <r>    9.3817    0.0000 </r>
       <r>    9.7432    0.0000 </r>
       <r>    9.7439    0.0000 </r>
      </set>
      <set comment="kpoint 24">
       <r>   -4.8750    1.0000 </r>
       <r>   -4.4407    1.0000 </r>
       <r>   -3.6728    1.0000 </r>
       <r>   -3.3848    1.0000 </r>
       <r>   -0.8700    1.0000 </r>
       <r>   -0.5441    1.0000 </r>
       <r>    0.3795    1.0000 </r>
       <r>    0.9521    1.0000 </r>
       <r>    1.6974    1.0000 </r>
       <r>    1.9678    1.0000 </r>
       <r>    2.6964    1.0000 </r>
       <r>    3.1480    1.0000 </r>
       <r>    3.5675    1.0000 </r>
       <r>    3.6652    1.0000 </r>
       <r>    4.0427    1.0000 </r>
       <r>    4.6346    1.0000 </r>
       <r>    7.7686    0.0000 </r>
       <r>    8.3684    0.0000 </r>
       <r>    8.4539    0.0000 </r>
       <r>    8.6675    0.0000 </r>
       <r>    8.9590    0.0000 </r>
       <r>    9.1195    0.0000 </r>
       <r>    9.1885    0.0000 </r>
       <r>   10.0444    0.0000 </r>
      </set>
      <set comment="kpoint 25">
       <r>   -4.5476    1.0000 </r>
       <r>   -4.1416    1.0000 </r>
       <r>   -4.1416    1.0000 </r>
       <r>   -3.7810    1.0000 </r>
       <r>   -0.5157    1.0000 </r>
       <r>   -0.0935    1.0000 </r>
       <r>   -0.0935    1.0000 </r>
       <r>    0.4048    1.0000 </r>
       <r>    1.9477    1.0000 </r>
       <r>    2.2933    1.0000 </r>
       <r>    2.2933    1.0000 </r>
       <r>    2.6942    1.0000 </r>
       <r>    4.0680    1.0000 </r>
       <r>    4.1694    1.0000 </r>
       <r>    4.1694    1.0000 </r>
       <r>    4.5768    1.0000 </r>
       <r>    7.7986    0.0000 </r>
       <r>    8.2482    0.0000 </r>
       <r>    8.2947    0.0000 </r>
       <r>    8.2947    0.0000 </r>
       <r>    9.4028    0.0000 </r>
       <r>    9.4028    0.0000 </r>
       <r>    9.6924    0.0000 </r>
       <r>    9.7544    0.0000 </r>
      </set>
      <set comment="kpoint 26">
       <r>   -5.5753    1.0000 </r>
       <r>   -3.4347    1.0000 </r>
       <r>   -3.4347    1.0000 </r>
       <r>   -3.4347    1.0000 </r>
       <r>   -0.7166    1.0000 </r>
       <r>   -0.7166    1.0000 </r>
       <r>   -0.7166    1.0000 </r>
       <r>    2.0400    1.0000 </r>
       <r>    2.0400    1.0000 </r>
       <r>    2.0400    1.0000 </r>
       <r>    2.2255    1.0000 </r>
       <r>    3.3289    1.0000 </r>
       <r>    3.3289    1.0000 </r>
       <r>    3.3289    1.0000 </r>
       <r>    4.9651    1.0000 </r>
       <r>    4.9651    1.0000 </r>
       <r>    6.9937    0.0000 </r>
       <r>    6.9937    0.0000 </r>
       <r>    6.9937    0.0000 </r>
       <r>    7.6783    0.0000 </r>
       <r>    9.0376    0.0000 </r>
       <r>    9.0376    0.0000 </r>
       <r>    9.4510    0.0000 </r>
       <r>    9.4510    0.0000 </r>
      </set>
      <set comment="kpoint 27">
       <r>   -5.3229    1.0000 </r>
       <r>   -4.0168    1.0000 </r>
       <r>   -3.3453    1.0000 </r>
       <r>   -3.3453    1.0000 </r>
       <r>   -0.9297    1.0000 </r>
       <r>   -0.9297    1.0000 </r>
       <r>   -0.1612    1.0000 </r>
       <r>    1.5687    1.0000 </r>
       <r>    1.9895    1.0000 </r>
       <r>    1.9895    1.0000 </r>
       <r>    2.6319    1.0000 </r>
       <r>    3.3779    1.0000 </r>
       <r>    3.3779    1.0000 </r>
       <r>    3.5440    1.0000 </r>
       <r>    4.5790    1.0000 </r>
       <r>    4.7506    1.0000 </r>
       <r>    7.2785    0.0000 </r>
       <r>    7.4385    0.0000 </r>
       <r>    7.4385    0.0000 </r>
       <r>    7.8000    0.0000 </r>
       <r>    8.8643    0.0000 </r>
       <r>    9.4644    0.0000 </r>
       <r>    9.7927    0.0000 </r>
       <r>   10.4236    0.0000 </r>
      </set>
      <set comment="kpoint 28">
       <r>   -4.9743    1.0000 </r>
       <r>   -4.5357    1.0000 </r>
       <r>   -3.2797    1.0000 </r>
       <r>   -3.2797    1.0000 </r>
       <r>   -1.0744    1.0000 </r>
       <r>   -1.0744    1.0000 </r>
       <r>    0.3857    1.0000 </r>
       <r>    0.9556    1.0000 </r>
       <r>    2.0018    1.0000 </r>
       <r>    2.0018    1.0000 </r>
       <r>    3.3250    1.0000 </r>
       <r>    3.3250    1.0000 </r>
       <r>    3.3573    1.0000 </r>
       <r>    3.8349    1.0000 </r>
       <r>    4.1152    1.0000 </r>
       <r>    4.1879    1.0000 </r>
       <r>    7.6258    0.0000 </r>
       <r>    7.9135    0.0000 </r>
       <r>    8.2839    0.0000 </r>
       <r>    8.2839    0.0000 </r>
       <r>    9.0686    0.0000 </r>
       <r>    9.3681    0.0000 </r>
       <r>    9.3681    0.0000 </r>
       <r>    9.8529    0.0000 </r>
      </set>
      <set comment="kpoint 29">
       <r>   -5.0795    1.0000 </r>
       <r>   -3.8545    1.0000 </r>
       <r>   -3.8545    1.0000 </r>
       <r>   -3.3797    1.0000 </r>
       <r>   -1.0788    1.0000 </r>
       <r>   -0.5510    1.0000 </r>
       <r>   -0.5510    1.0000 </r>
       <r>    0.9444    1.0000 </r>
       <r>    2.1215    1.0000 </r>
       <r>    2.6145    1.0000 </r>
       <r>    2.6145    1.0000 </r>
       <r>    3.6483    1.0000 </r>
       <r>    3.6483    1.0000 </r>
       <r>    3.6952    1.0000 </r>
       <r>    4.2649    1.0000 </r>
       <r>    4.8559    1.0000 </r>
       <r>    7.4245    0.0000 </r>
       <r>    7.6773    0.0000 </r>
       <r>    7.7008    0.0000 </r>
       <r>    7.7008    0.0000 </r>
       <r>    9.0565    0.0000 </r>
       <r>    9.2880    0.0000 </r>
       <r>    9.8133    0.0000 </r>
       <r>    9.8133    0.0000 </r>
      </set>
      <set comment="kpoint 30">
       <r>   -4.7462    1.0000 </r>
       <r>   -4.3322    1.0000 </r>
       <r>   -3.6639    1.0000 </r>
       <r>   -3.4895    1.0000 </r>
       <r>   -1.0699    1.0000 </r>
       <r>   -0.8789    1.0000 </r>
       <r>   -0.1197    1.0000 </r>
       <r>    0.3777    1.0000 </r>
       <r>    2.3122    1.0000 </r>
       <r>    2.5010    1.0000 </r>
       <r>    3.2575    1.0000 </r>
       <r>    3.7281    1.0000 </r>
       <r>    3.7859    1.0000 </r>
       <r>    3.8070    1.0000 </r>
       <r>    4.0513    1.0000 </r>
       <r>    4.5417    1.0000 </r>
       <r>    7.8943    0.0000 </r>
       <r>    7.9373    0.0000 </r>
       <r>    7.9718    0.0000 </r>
       <r>    8.4508    0.0000 </r>
       <r>    8.8125    0.0000 </r>
       <r>    8.9210    0.0000 </r>
       <r>    9.1591    0.0000 </r>
       <r>    9.5461    0.0000 </r>
      </set>
      <set comment="kpoint 31">
       <r>   -4.4386    1.0000 </r>
       <r>   -4.0679    1.0000 </r>
       <r>   -4.0679    1.0000 </r>
       <r>   -3.7712    1.0000 </r>
       <r>   -0.8917    1.0000 </r>
       <r>   -0.5615    1.0000 </r>
       <r>   -0.5615    1.0000 </r>
       <r>   -0.1369    1.0000 </r>
       <r>    2.6387    1.0000 </r>
       <r>    2.9694    1.0000 </r>
       <r>    2.9694    1.0000 </r>
       <r>    3.4036    1.0000 </r>
       <r>    4.1383    1.0000 </r>
       <r>    4.2157    1.0000 </r>
       <r>    4.2157    1.0000 </r>
       <r>    4.5643    1.0000 </r>
       <r>    7.8617    0.0000 </r>
       <r>    7.9569    0.0000 </r>
       <r>    8.1808    0.0000 </r>
       <r>    8.1808    0.0000 </r>
       <r>    8.9310    0.0000 </r>
       <r>    8.9310    0.0000 </r>
       <r>    9.2502    0.0000 </r>
       <r>    9.3254    0.0000 </r>
      </set>
      <set comment="kpoint 32">
       <r>   -4.8497    1.0000 </r>
       <r>   -3.7617    1.0000 </r>
       <r>   -3.7617    1.0000 </r>
       <r>   -3.7617    1.0000 </r>
       <r>   -0.9092    1.0000 </r>
       <r>   -0.9092    1.0000 </r>
       <r>   -0.9092    1.0000 </r>
       <r>    0.3450    1.0000 </r>
       <r>    2.8830    1.0000 </r>
       <r>    2.8830    1.0000 </r>
       <r>    2.8830    1.0000 </r>
       <r>    3.8736    1.0000 </r>
       <r>    3.8736    1.0000 </r>
       <r>    3.8736    1.0000 </r>
       <r>    4.6316    1.0000 </r>
       <r>    4.6316    1.0000 </r>
       <r>    7.3061    0.0000 </r>
       <r>    7.6541    0.0000 </r>
       <r>    7.6541    0.0000 </r>
       <r>    7.6541    0.0000 </r>
       <r>    9.1180    0.0000 </r>
       <r>    9.1180    0.0000 </r>
       <r>    9.6755    0.0000 </r>
       <r>    9.6755    0.0000 </r>
      </set>
      <set comment="kpoint 33">
       <r>   -4.5400    1.0000 </r>
       <r>   -4.1670    1.0000 </r>
       <r>   -3.6935    1.0000 </r>
       <r>   -3.6935    1.0000 </r>
       <r>   -1.1236    1.0000 </r>
       <r>   -1.1236    1.0000 </r>
       <r>   -0.6031    1.0000 </r>
       <r>   -0.1789    1.0000 </r>
       <r>    3.0359    1.0000 </r>
       <r>    3.0359    1.0000 </r>
       <r>    3.6867    1.0000 </r>
       <r>    3.9882    1.0000 </r>
       <r>    3.9882    1.0000 </r>
       <r>    4.1053    1.0000 </r>
       <r>    4.3684    1.0000 </r>
       <r>    4.3736    1.0000 </r>
       <r>    7.4955    0.0000 </r>
       <r>    7.7818    0.0000 </r>
       <r>    7.9957    0.0000 </r>
       <r>    7.9957    0.0000 </r>
       <r>    8.9099    0.0000 </r>
       <r>    8.9550    0.0000 </r>
       <r>    8.9550    0.0000 </r>
       <r>    8.9954    0.0000 </r>
      </set>
      <set comment="kpoint 34">
       <r>   -4.2725    1.0000 </r>
       <r>   -3.9739    1.0000 </r>
       <r>   -3.9739    1.0000 </r>
       <r>   -3.7997    1.0000 </r>
       <r>   -1.1607    1.0000 </r>
       <r>   -0.9720    1.0000 </r>
       <r>   -0.9720    1.0000 </r>
       <r>   -0.6429    1.0000 </r>
       <r>    3.4339    1.0000 </r>
       <r>    3.6785    1.0000 </r>
       <r>    3.6785    1.0000 </r>
       <r>    4.1043    1.0000 </r>
       <r>    4.2410    1.0000 </r>
       <r>    4.2765    1.0000 </r>
       <r>    4.2765    1.0000 </r>
       <r>    4.5282    1.0000 </r>
       <r>    7.4247    0.0000 </r>
       <r>    7.7608    0.0000 </r>
       <r>    7.7608    0.0000 </r>
       <r>    7.7782    0.0000 </r>
       <r>    8.8423    0.0000 </r>
       <r>    8.8423    0.0000 </r>
       <r>    9.0257    0.0000 </r>
       <r>    9.0644    0.0000 </r>
      </set>
      <set comment="kpoint 35">
       <r>   -4.0788    1.0000 </r>
       <r>   -3.9048    1.0000 </r>
       <r>   -3.9048    1.0000 </r>
       <r>   -3.9048    1.0000 </r>
       <r>   -1.2092    1.0000 </r>
       <r>   -1.2092    1.0000 </r>
       <r>   -1.2092    1.0000 </r>
       <r>   -1.0213    1.0000 </r>
       <r>    4.1468    1.0000 </r>
       <r>    4.1468    1.0000 </r>
       <r>    4.1468    1.0000 </r>
       <r>    4.3556    1.0000 </r>
       <r>    4.3556    1.0000 </r>
       <r>    4.3556    1.0000 </r>
       <r>    4.4575    1.0000 </r>
       <r>    4.4575    1.0000 </r>
       <r>    7.1057    0.0000 </r>
       <r>    7.3618    0.0000 </r>
       <r>    7.3618    0.0000 </r>
       <r>    7.3618    0.0000 </r>
       <r>    8.9030    0.0000 </r>
       <r>    8.9030    0.0000 </r>
       <r>    8.9031    0.0000 </r>
       <r>    8.9878    0.0000 </r>
      </set>
     </set>
    </set>
   </array>
  </eigenvalues>
  <separator name="orbital magnetization" >
   <v name="MAGDIPOLOUT">      0.00000000      0.00000000      0.00000000</v>
  </separator>
  <dos>
   <i name="efermi">      5.64896041 </i>
   <total>
    <array>
     <dimension dim="1">gridpoints</dimension>
     <dimension dim="2">spin</dimension>
     <field>energy</field>
     <field>total</field>
     <field>integrated</field>
     <set>
      <set comment="spin 1">
       <r>    -7.1995     0.0000     0.0000 </r>
       <r>    -7.1375     0.0000     0.0000 </r>
       <r>    -7.0754     0.0000     0.0000 </r>
       <r>    -7.0133     0.0000     0.0000 </r>
       <r>    -6.9512     0.0000     0.0000 </r>
       <r>    -6.8891     0.0000     0.0000 </r>
       <r>    -6.8271     0.0000     0.0000 </r>
       <r>    -6.7650     0.0000     0.0000 </r>
       <r>    -6.7029     0.0000     0.0000 </r>
       <r>    -6.6408     0.0000     0.0000 </r>
       <r>    -6.5788     0.0000     0.0000 </r>
       <r>    -6.5167     0.0000     0.0000 </r>
       <r>    -6.4546     0.0001     0.0000 </r>
       <r>    -6.3925     0.0009     0.0001 </r>
       <r>    -6.3305     0.0005     0.0001 </r>
       <r>    -6.2684    -0.0095    -0.0005 </r>
       <r>    -6.2063     0.0088     0.0000 </r>
       <r>    -6.1442     0.1988     0.0124 </r>
       <r>    -6.0821     0.4602     0.0410 </r>
       <r>    -6.0201     0.4340     0.0679 </r>
       <r>    -5.9580     0.5965     0.1049 </r>
       <r>    -5.8959     1.0830     0.1722 </r>
       <r>    -5.8338     0.7493     0.2187 </r>
       <r>    -5.7718     0.4759     0.2482 </r>
       <r>    -5.7097     1.1292     0.3183 </r>
       <r>    -5.6476     1.3969     0.4050 </r>
       <r>    -5.5855     0.9921     0.4666 </r>
       <r>    -5.5235     1.0407     0.5312 </r>
       <r>    -5.4614     1.6445     0.6333 </r>
       <r>    -5.3993     0.8880     0.6884 </r>
       <r>    -5.3372     0.7589     0.7355 </r>
       <r>    -5.2751     1.9387     0.8559 </r>
       <r>    -5.2131     1.8166     0.9687 </r>
       <r>    -5.1510     1.5662     1.0659 </r>
       <r>    -5.0889     2.0656     1.1941 </r>
       <r>    -5.0268     1.1899     1.2680 </r>
       <r>    -4.9648     0.5762     1.3037 </r>
       <r>    -4.9027     1.7135     1.4101 </r>
       <r>    -4.8406     2.6439     1.5742 </r>
       <r>    -4.7785     2.1325     1.7066 </r>
       <r>    -4.7165     2.1396     1.8394 </r>
       <r>    -4.6544     2.0778     1.9684 </r>
       <r>    -4.5923     1.3875     2.0546 </r>
       <r>    -4.5302     1.9791     2.1774 </r>
       <r>    -4.4681     2.6907     2.3444 </r>
       <r>    -4.4061     2.2681     2.4852 </r>
       <r>    -4.3440     1.6227     2.5860 </r>
       <r>    -4.2819     2.2140     2.7234 </r>
       <r>    -4.2198     2.0265     2.8492 </r>
       <r>    -4.1578     3.1882     3.0471 </r>
       <r>    -4.0957     4.3780     3.3189 </r>
       <r>    -4.0336     2.7236     3.4880 </r>
       <r>    -3.9715     2.5731     3.6477 </r>
       <r>    -3.9095     3.4122     3.8595 </r>
       <r>    -3.8474     2.7141     4.0280 </r>
       <r>    -3.7853     2.6018     4.1895 </r>
       <r>    -3.7232     3.4094     4.4012 </r>
       <r>    -3.6611     5.0643     4.7155 </r>
       <r>    -3.5991     3.6970     4.9450 </r>
       <r>    -3.5370     1.7255     5.0522 </r>
       <r>    -3.4749     2.6849     5.2188 </r>
       <r>    -3.4128     3.0762     5.4098 </r>
       <r>    -3.3508     5.2947     5.7385 </r>
       <r>    -3.2887     4.5819     6.0229 </r>
       <r>    -3.2266     1.3196     6.1048 </r>
       <r>    -3.1645     1.3605     6.1893 </r>
       <r>    -3.1024     1.9846     6.3125 </r>
       <r>    -3.0404     1.1412     6.3833 </r>
       <r>    -2.9783     1.3347     6.4662 </r>
       <r>    -2.9162     2.3932     6.6147 </r>
       <r>    -2.8541     4.2198     6.8767 </r>
       <r>    -2.7921     3.7592     7.1100 </r>
       <r>    -2.7300     2.5302     7.2671 </r>
       <r>    -2.6679     2.7878     7.4402 </r>
       <r>    -2.6058     1.6446     7.5423 </r>
       <r>    -2.5438     0.5595     7.5770 </r>
       <r>    -2.4817     0.4282     7.6036 </r>
       <r>    -2.4196     0.8175     7.6543 </r>
       <r>    -2.3575     0.8215     7.7053 </r>
       <r>    -2.2954     0.7486     7.7518 </r>
       <r>    -2.2334     0.8750     7.8061 </r>
       <r>    -2.1713     0.7350     7.8517 </r>
       <r>    -2.1092     0.9992     7.9137 </r>
       <r>    -2.0471     1.6094     8.0137 </r>
       <r>    -1.9851     1.7449     8.1220 </r>
       <r>    -1.9230     1.0442     8.1868 </r>
       <r>    -1.8609     0.5800     8.2228 </r>
       <r>    -1.7988     0.2552     8.2386 </r>
       <r>    -1.7368     0.4317     8.2654 </r>
       <r>    -1.6747     0.7773     8.3137 </r>
       <r>    -1.6126     0.4990     8.3447 </r>
       <r>    -1.5505     0.5338     8.3778 </r>
       <r>    -1.4884     0.4339     8.4047 </r>
       <r>    -1.4264     0.6874     8.4474 </r>
       <r>    -1.3643     1.8734     8.5637 </r>
       <r>    -1.3022     5.2954     8.8924 </r>
       <r>    -1.2401     6.6039     9.3024 </r>
       <r>    -1.1781     3.9312     9.5464 </r>
       <r>    -1.1160     5.0318     9.8588 </r>
       <r>    -1.0539     5.4063    10.1944 </r>
       <r>    -0.9918     2.9906    10.3800 </r>
       <r>    -0.9298     4.4410    10.6557 </r>
       <r>    -0.8677     5.8846    11.0210 </r>
       <r>    -0.8056     2.6817    11.1875 </r>
       <r>    -0.7435     1.4633    11.2783 </r>
       <r>    -0.6814     2.3144    11.4220 </r>
       <r>    -0.6194     2.1562    11.5558 </r>
       <r>    -0.5573     4.8128    11.8546 </r>
       <r>    -0.4952     5.4731    12.1944 </r>
       <r>    -0.4331     2.0372    12.3208 </r>
       <r>    -0.3711     1.5327    12.4160 </r>
       <r>    -0.3090     1.5478    12.5121 </r>
       <r>    -0.2469     0.2791    12.5294 </r>
       <r>    -0.1848     1.7172    12.6360 </r>
       <r>    -0.1228     4.5012    12.9154 </r>
       <r>    -0.0607     3.3076    13.1207 </r>
       <r>     0.0014     0.8802    13.1754 </r>
       <r>     0.0635     0.2053    13.1881 </r>
       <r>     0.1256     0.4417    13.2155 </r>
       <r>     0.1876     1.7299    13.3229 </r>
       <r>     0.2497     1.0545    13.3884 </r>
       <r>     0.3118     0.4637    13.4172 </r>
       <r>     0.3739     3.3883    13.6275 </r>
       <r>     0.4359     4.1058    13.8824 </r>
       <r>     0.4980     1.2649    13.9609 </r>
       <r>     0.5601     0.4108    13.9864 </r>
       <r>     0.6222     0.8570    14.0396 </r>
       <r>     0.6842     0.9363    14.0977 </r>
       <r>     0.7463     0.3866    14.1217 </r>
       <r>     0.8084     0.0839    14.1269 </r>
       <r>     0.8705     0.9967    14.1888 </r>
       <r>     0.9326     2.4537    14.3411 </r>
       <r>     0.9946     2.4791    14.4950 </r>
       <r>     1.0567     0.7617    14.5423 </r>
       <r>     1.1188     0.4222    14.5685 </r>
       <r>     1.1809     0.2180    14.5820 </r>
       <r>     1.2429     0.4451    14.6096 </r>
       <r>     1.3050     1.5448    14.7055 </r>
       <r>     1.3671     1.6487    14.8079 </r>
       <r>     1.4292     1.4012    14.8949 </r>
       <r>     1.4912     2.2909    15.0371 </r>
       <r>     1.5533     6.3891    15.4337 </r>
       <r>     1.6154     7.4161    15.8941 </r>
       <r>     1.6775     5.2287    16.2187 </r>
       <r>     1.7396     4.7117    16.5111 </r>
       <r>     1.8016     1.9105    16.6297 </r>
       <r>     1.8637     0.7121    16.6739 </r>
       <r>     1.9258     4.2554    16.9381 </r>
       <r>     1.9879     8.6953    17.4779 </r>
       <r>     2.0499     6.2984    17.8689 </r>
       <r>     2.1120     2.2629    18.0093 </r>
       <r>     2.1741     1.7722    18.1194 </r>
       <r>     2.2362     3.0927    18.3113 </r>
       <r>     2.2982     6.1271    18.6917 </r>
       <r>     2.3603     7.5000    19.1573 </r>
       <r>     2.4224     3.7999    19.3932 </r>
       <r>     2.4845     1.4309    19.4820 </r>
       <r>     2.5466     3.6469    19.7084 </r>
       <r>     2.6086     6.3808    20.1045 </r>
       <r>     2.6707     6.9116    20.5335 </r>
       <r>     2.7328     5.1842    20.8553 </r>
       <r>     2.7949     3.5839    21.0778 </r>
       <r>     2.8569     5.2977    21.4067 </r>
       <r>     2.9190     6.8831    21.8340 </r>
       <r>     2.9811     6.8734    22.2606 </r>
       <r>     3.0432     6.5939    22.6700 </r>
       <r>     3.1053     6.2463    23.0577 </r>
       <r>     3.1673     4.9612    23.3657 </r>
       <r>     3.2294     4.7311    23.6594 </r>
       <r>     3.2915     5.8621    24.0233 </r>
       <r>     3.3536     7.6564    24.4986 </r>
       <r>     3.4156     7.2722    24.9500 </r>
       <r>     3.4777     3.1771    25.1472 </r>
       <r>     3.5398     2.4090    25.2968 </r>
       <r>     3.6019     5.9488    25.6661 </r>
       <r>     3.6639     8.4772    26.1923 </r>
       <r>     3.7260     6.7523    26.6115 </r>
       <r>     3.7881     5.3708    26.9449 </r>
       <r>     3.8502     5.4276    27.2818 </r>
       <r>     3.9123     2.1561    27.4157 </r>
       <r>     3.9743     1.7969    27.5272 </r>
       <r>     4.0364     5.3804    27.8612 </r>
       <r>     4.0985     7.0100    28.2964 </r>
       <r>     4.1606     7.1913    28.7428 </r>
       <r>     4.2226     6.2407    29.1302 </r>
       <r>     4.2847     4.4292    29.4051 </r>
       <r>     4.3468     3.0778    29.5962 </r>
       <r>     4.4089     3.0579    29.7860 </r>
       <r>     4.4709     2.6909    29.9530 </r>
       <r>     4.5330     3.4167    30.1651 </r>
       <r>     4.5951     5.0558    30.4790 </r>
       <r>     4.6572     4.6711    30.7690 </r>
       <r>     4.7193     2.8579    30.9464 </r>
       <r>     4.7813     2.0041    31.0708 </r>
       <r>     4.8434     0.7907    31.1199 </r>
       <r>     4.9055     0.7706    31.1677 </r>
       <r>     4.9676     2.6630    31.3330 </r>
       <r>     5.0296     2.9473    31.5160 </r>
       <r>     5.0917     1.2333    31.5925 </r>
       <r>     5.1538     0.4097    31.6180 </r>
       <r>     5.2159     1.0372    31.6823 </r>
       <r>     5.2779     1.6308    31.7836 </r>
       <r>     5.3400     1.2064    31.8585 </r>
       <r>     5.4021     0.9681    31.9186 </r>
       <r>     5.4642     0.6400    31.9583 </r>
       <r>     5.5263     0.1150    31.9654 </r>
       <r>     5.5883     0.3111    31.9848 </r>
       <r>     5.6504     0.2479    32.0001 </r>
       <r>     5.7125     0.0109    32.0008 </r>
       <r>     5.7746    -0.0151    31.9999 </r>
       <r>     5.8366     0.0009    31.9999 </r>
       <r>     5.8987     0.0010    32.0000 </r>
       <r>     5.9608     0.0005    32.0000 </r>
       <r>     6.0229     0.0019    32.0001 </r>
       <r>     6.0849    -0.0057    31.9998 </r>
       <r>     6.1470    -0.0215    31.9985 </r>
       <r>     6.2091     0.1245    32.0062 </r>
       <r>     6.2712     0.3051    32.0251 </r>
       <r>     6.3333     0.2291    32.0393 </r>
       <r>     6.3953     0.2193    32.0530 </r>
       <r>     6.4574     0.4827    32.0829 </r>
       <r>     6.5195     1.4775    32.1746 </r>
       <r>     6.5816     1.9521    32.2958 </r>
       <r>     6.6436     1.9351    32.4160 </r>
       <r>     6.7057     1.4940    32.5087 </r>
       <r>     6.7678     0.8159    32.5593 </r>
       <r>     6.8299     1.8372    32.6734 </r>
       <r>     6.8919     3.0872    32.8650 </r>
       <r>     6.9540     2.5124    33.0210 </r>
       <r>     7.0161     1.6721    33.1248 </r>
       <r>     7.0782     2.0888    33.2545 </r>
       <r>     7.1403     1.0915    33.3222 </r>
       <r>     7.2023     0.8921    33.3776 </r>
       <r>     7.2644     4.8988    33.6817 </r>
       <r>     7.3265     6.6169    34.0925 </r>
       <r>     7.3886     4.3450    34.3622 </r>
       <r>     7.4506     4.4610    34.6391 </r>
       <r>     7.5127     2.6371    34.8028 </r>
       <r>     7.5748     1.1875    34.8765 </r>
       <r>     7.6369     4.3483    35.1465 </r>
       <r>     7.6989     7.2206    35.5947 </r>
       <r>     7.7610     7.4699    36.0584 </r>
       <r>     7.8231     6.4768    36.4605 </r>
       <r>     7.8852     5.3051    36.7898 </r>
       <r>     7.9473     6.7166    37.2067 </r>
       <r>     8.0093     6.7057    37.6230 </r>
       <r>     8.0714     4.2640    37.8877 </r>
       <r>     8.1335     4.8134    38.1865 </r>
       <r>     8.1956     5.1650    38.5071 </r>
       <r>     8.2576     5.5092    38.8491 </r>
       <r>     8.3197     7.6180    39.3220 </r>
       <r>     8.3818     5.5541    39.6668 </r>
       <r>     8.4439     4.1504    39.9245 </r>
       <r>     8.5059     5.4362    40.2619 </r>
       <r>     8.5680     3.9141    40.5049 </r>
       <r>     8.6301     2.2573    40.6450 </r>
       <r>     8.6922     3.2721    40.8481 </r>
       <r>     8.7543     5.2170    41.1720 </r>
       <r>     8.8163     6.0785    41.5493 </r>
       <r>     8.8784     7.3418    42.0051 </r>
       <r>     8.9405     9.4119    42.5893 </r>
       <r>     9.0026     6.8397    43.0139 </r>
       <r>     9.0646     5.0937    43.3301 </r>
       <r>     9.1267     6.5438    43.7364 </r>
       <r>     9.1888     5.7730    44.0947 </r>
       <r>     9.2509     4.2564    44.3590 </r>
       <r>     9.3129     6.0442    44.7342 </r>
       <r>     9.3750     7.9616    45.2284 </r>
       <r>     9.4371     6.8638    45.6545 </r>
       <r>     9.4992     5.3562    45.9870 </r>
       <r>     9.5613     4.9931    46.2969 </r>
       <r>     9.6233     4.1667    46.5556 </r>
       <r>     9.6854     2.0766    46.6845 </r>
       <r>     9.7475     2.4646    46.8375 </r>
       <r>     9.8096     3.9268    47.0813 </r>
       <r>     9.8716     2.9321    47.2633 </r>
       <r>     9.9337     1.9404    47.3837 </r>
       <r>     9.9958     2.1775    47.5189 </r>
       <r>    10.0579     2.3277    47.6634 </r>
       <r>    10.1200     2.1069    47.7942 </r>
       <r>    10.1820     1.3100    47.8755 </r>
       <r>    10.2441     0.7811    47.9240 </r>
       <r>    10.3062     0.1689    47.9345 </r>
       <r>    10.3683     0.0333    47.9365 </r>
       <r>    10.4303     0.5622    47.9714 </r>
       <r>    10.4924     0.4781    48.0011 </r>
       <r>    10.5545     0.0110    48.0018 </r>
       <r>    10.6166    -0.0339    47.9997 </r>
       <r>    10.6786     0.0031    47.9999 </r>
       <r>    10.7407     0.0017    48.0000 </r>
       <r>    10.8028     0.0001    48.0000 </r>
       <r>    10.8649     0.0000    48.0000 </r>
       <r>    10.9270     0.0000    48.0000 </r>
       <r>    10.9890     0.0000    48.0000 </r>
       <r>    11.0511     0.0000    48.0000 </r>
       <r>    11.1132     0.0000    48.0000 </r>
       <r>    11.1753     0.0000    48.0000 </r>
       <r>    11.2373     0.0000    48.0000 </r>
       <r>    11.2994     0.0000    48.0000 </r>
       <r>    11.3615     0.0000    48.0000 </r>
       <r>    11.4236     0.0000    48.0000 </r>
      </set>
     </set>
    </array>
   </total>
  </dos>
 </calculation>
 <structure name="finalpos" >
  <crystal>
   <varray name="basis" >
    <v>       5.46906415       0.00000000       0.00000000 </v>
    <v>       0.00000000       5.46906415       0.00000000 </v>
    <v>       0.00000000       0.00000000       5.46906415 </v>
   </varray>
   <i name="volume">    163.58333295 </i>
   <varray name="rec_basis" >
    <v>       0.18284664       0.00000000       0.00000000 </v>
    <v>       0.00000000       0.18284664       0.00000000 </v>
    <v>       0.00000000       0.00000000       0.18284664 </v>
   </varray>
  </crystal>
  <varray name="positions" >
   <v>       0.00000000       0.00000000       0.00000000 </v>
   <v>       0.25000000       0.25000000       0.25000000 </v>
   <v>       0.50000000       0.50000000       0.00000000 </v>
   <v>       0.75000000       0.75000000       0.25000000 </v>
   <v>       0.50000000       0.00000000       0.50000000 </v>
   <v>       0.75000000       0.25000000       0.75000000 </v>
   <v>       0.00000000       0.50000000       0.50000000 </v>
   <v>       0.25000000       0.75000000       0.75000000 </v>
  </varray>
 </structure>
</modeling>
