<?xml version="1.0" encoding="ISO-8859-1"?>
<modeling>
 <generator>
  <i name="program" type="string">vasp </i>
  <i name="version" type="string">5.4.1  </i>
  <i name="subversion" type="string">24Jun15 (build Jul  8 2015 13:29:37) complex                          parallel </i>
  <i name="platform" type="string">FX10FRT </i>
  <i name="date" type="string">2016 02 29 </i>
  <i name="time" type="string">21:50:09 </i>
 </generator>
 <incar>
  <i type="string" name="PREC">accurate</i>
  <i type="string" name="ALGO"> Normal</i>
  <i type="int" name="ISPIN">     1</i>
  <i type="int" name="IBRION">    -1</i>
  <i name="EDIFF">      0.00010000</i>
  <i type="int" name="NSW">     0</i>
  <i type="int" name="ISIF">     2</i>
  <i name="ENCUT">    400.00000000</i>
  <i type="int" name="ISMEAR">     2</i>
  <i name="SIGMA">      0.01000000</i>
  <i type="int" name="NWRITE">     1</i>
  <v type="int" name="KPOINT_BSE">    -1     0     0     0</v>
 </incar>
 <kpoints>
  <generation param="Monkhorst-Pack">
   <v type="int" name="divisions">       8        8        8 </v>
   <v name="usershift">      0.00000000       0.00000000       0.00000000 </v>
   <v name="genvec1">      0.12500000       0.00000000       0.00000000 </v>
   <v name="genvec2">      0.00000000       0.12500000       0.00000000 </v>
   <v name="genvec3">      0.00000000       0.00000000       0.12500000 </v>
   <v name="shift">      0.50000000       0.50000000       0.50000000 </v>
  </generation>
  <varray name="kpointlist" >
   <v>       0.06250000       0.06250000       0.06250000 </v>
   <v>       0.18750000       0.06250000       0.06250000 </v>
   <v>       0.31250000       0.06250000       0.06250000 </v>
   <v>       0.43750000       0.06250000       0.06250000 </v>
   <v>      -0.43750000       0.06250000       0.06250000 </v>
   <v>      -0.31250000       0.06250000       0.06250000 </v>
   <v>      -0.18750000       0.06250000       0.06250000 </v>
   <v>      -0.06250000       0.06250000       0.06250000 </v>
   <v>       0.06250000       0.18750000       0.06250000 </v>
   <v>       0.18750000       0.18750000       0.06250000 </v>
   <v>       0.31250000       0.18750000       0.06250000 </v>
   <v>       0.43750000       0.18750000       0.06250000 </v>
   <v>      -0.43750000       0.18750000       0.06250000 </v>
   <v>      -0.31250000       0.18750000       0.06250000 </v>
   <v>      -0.18750000       0.18750000       0.06250000 </v>
   <v>      -0.06250000       0.18750000       0.06250000 </v>
   <v>       0.06250000       0.31250000       0.06250000 </v>
   <v>       0.18750000       0.31250000       0.06250000 </v>
   <v>       0.31250000       0.31250000       0.06250000 </v>
   <v>       0.43750000       0.31250000       0.06250000 </v>
   <v>      -0.43750000       0.31250000       0.06250000 </v>
   <v>      -0.31250000       0.31250000       0.06250000 </v>
   <v>      -0.18750000       0.31250000       0.06250000 </v>
   <v>      -0.06250000       0.31250000       0.06250000 </v>
   <v>       0.06250000       0.43750000       0.06250000 </v>
   <v>       0.18750000       0.43750000       0.06250000 </v>
   <v>       0.31250000       0.43750000       0.06250000 </v>
   <v>       0.43750000       0.43750000       0.06250000 </v>
   <v>      -0.43750000       0.43750000       0.06250000 </v>
   <v>      -0.31250000       0.43750000       0.06250000 </v>
   <v>      -0.18750000       0.43750000       0.06250000 </v>
   <v>      -0.06250000       0.43750000       0.06250000 </v>
   <v>       0.06250000      -0.43750000       0.06250000 </v>
   <v>       0.18750000      -0.43750000       0.06250000 </v>
   <v>       0.31250000      -0.43750000       0.06250000 </v>
   <v>       0.43750000      -0.43750000       0.06250000 </v>
   <v>      -0.43750000      -0.43750000       0.06250000 </v>
   <v>      -0.31250000      -0.43750000       0.06250000 </v>
   <v>      -0.18750000      -0.43750000       0.06250000 </v>
   <v>      -0.06250000      -0.43750000       0.06250000 </v>
   <v>       0.06250000      -0.31250000       0.06250000 </v>
   <v>       0.18750000      -0.31250000       0.06250000 </v>
   <v>       0.31250000      -0.31250000       0.06250000 </v>
   <v>       0.43750000      -0.31250000       0.06250000 </v>
   <v>      -0.43750000      -0.31250000       0.06250000 </v>
   <v>      -0.31250000      -0.31250000       0.06250000 </v>
   <v>      -0.18750000      -0.31250000       0.06250000 </v>
   <v>      -0.06250000      -0.31250000       0.06250000 </v>
   <v>       0.06250000      -0.18750000       0.06250000 </v>
   <v>       0.18750000      -0.18750000       0.06250000 </v>
   <v>       0.31250000      -0.18750000       0.06250000 </v>
   <v>       0.43750000      -0.18750000       0.06250000 </v>
   <v>      -0.43750000      -0.18750000       0.06250000 </v>
   <v>      -0.31250000      -0.18750000       0.06250000 </v>
   <v>      -0.18750000      -0.18750000       0.06250000 </v>
   <v>      -0.06250000      -0.18750000       0.06250000 </v>
   <v>       0.06250000      -0.06250000       0.06250000 </v>
   <v>       0.18750000      -0.06250000       0.06250000 </v>
   <v>       0.31250000      -0.06250000       0.06250000 </v>
   <v>       0.43750000      -0.06250000       0.06250000 </v>
   <v>      -0.43750000      -0.06250000       0.06250000 </v>
   <v>      -0.31250000      -0.06250000       0.06250000 </v>
   <v>      -0.18750000      -0.06250000       0.06250000 </v>
   <v>      -0.06250000      -0.06250000       0.06250000 </v>
   <v>       0.06250000       0.06250000       0.18750000 </v>
   <v>       0.18750000       0.06250000       0.18750000 </v>
   <v>       0.31250000       0.06250000       0.18750000 </v>
   <v>       0.43750000       0.06250000       0.18750000 </v>
   <v>      -0.43750000       0.06250000       0.18750000 </v>
   <v>      -0.31250000       0.06250000       0.18750000 </v>
   <v>      -0.18750000       0.06250000       0.18750000 </v>
   <v>      -0.06250000       0.06250000       0.18750000 </v>
   <v>       0.06250000       0.18750000       0.18750000 </v>
   <v>       0.18750000       0.18750000       0.18750000 </v>
   <v>       0.31250000       0.18750000       0.18750000 </v>
   <v>       0.43750000       0.18750000       0.18750000 </v>
   <v>      -0.43750000       0.18750000       0.18750000 </v>
   <v>      -0.31250000       0.18750000       0.18750000 </v>
   <v>      -0.18750000       0.18750000       0.18750000 </v>
   <v>      -0.06250000       0.18750000       0.18750000 </v>
   <v>       0.06250000       0.31250000       0.18750000 </v>
   <v>       0.18750000       0.31250000       0.18750000 </v>
   <v>       0.31250000       0.31250000       0.18750000 </v>
   <v>       0.43750000       0.31250000       0.18750000 </v>
   <v>      -0.43750000       0.31250000       0.18750000 </v>
   <v>      -0.31250000       0.31250000       0.18750000 </v>
   <v>      -0.18750000       0.31250000       0.18750000 </v>
   <v>      -0.06250000       0.31250000       0.18750000 </v>
   <v>       0.06250000       0.43750000       0.18750000 </v>
   <v>       0.18750000       0.43750000       0.18750000 </v>
   <v>       0.31250000       0.43750000       0.18750000 </v>
   <v>       0.43750000       0.43750000       0.18750000 </v>
   <v>      -0.43750000       0.43750000       0.18750000 </v>
   <v>      -0.31250000       0.43750000       0.18750000 </v>
   <v>      -0.18750000       0.43750000       0.18750000 </v>
   <v>      -0.06250000       0.43750000       0.18750000 </v>
   <v>       0.06250000      -0.43750000       0.18750000 </v>
   <v>       0.18750000      -0.43750000       0.18750000 </v>
   <v>       0.31250000      -0.43750000       0.18750000 </v>
   <v>       0.43750000      -0.43750000       0.18750000 </v>
   <v>      -0.43750000      -0.43750000       0.18750000 </v>
   <v>      -0.31250000      -0.43750000       0.18750000 </v>
   <v>      -0.18750000      -0.43750000       0.18750000 </v>
   <v>      -0.06250000      -0.43750000       0.18750000 </v>
   <v>       0.06250000      -0.31250000       0.18750000 </v>
   <v>       0.18750000      -0.31250000       0.18750000 </v>
   <v>       0.31250000      -0.31250000       0.18750000 </v>
   <v>       0.43750000      -0.31250000       0.18750000 </v>
   <v>      -0.43750000      -0.31250000       0.18750000 </v>
   <v>      -0.31250000      -0.31250000       0.18750000 </v>
   <v>      -0.18750000      -0.31250000       0.18750000 </v>
   <v>      -0.06250000      -0.31250000       0.18750000 </v>
   <v>       0.06250000      -0.18750000       0.18750000 </v>
   <v>       0.18750000      -0.18750000       0.18750000 </v>
   <v>       0.31250000      -0.18750000       0.18750000 </v>
   <v>       0.43750000      -0.18750000       0.18750000 </v>
   <v>      -0.43750000      -0.18750000       0.18750000 </v>
   <v>      -0.31250000      -0.18750000       0.18750000 </v>
   <v>      -0.18750000      -0.18750000       0.18750000 </v>
   <v>      -0.06250000      -0.18750000       0.18750000 </v>
   <v>       0.06250000      -0.06250000       0.18750000 </v>
   <v>       0.18750000      -0.06250000       0.18750000 </v>
   <v>       0.31250000      -0.06250000       0.18750000 </v>
   <v>       0.43750000      -0.06250000       0.18750000 </v>
   <v>      -0.43750000      -0.06250000       0.18750000 </v>
   <v>      -0.31250000      -0.06250000       0.18750000 </v>
   <v>      -0.18750000      -0.06250000       0.18750000 </v>
   <v>      -0.06250000      -0.06250000       0.18750000 </v>
   <v>       0.06250000       0.06250000       0.31250000 </v>
   <v>       0.18750000       0.06250000       0.31250000 </v>
   <v>       0.31250000       0.06250000       0.31250000 </v>
   <v>       0.43750000       0.06250000       0.31250000 </v>
   <v>      -0.43750000       0.06250000       0.31250000 </v>
   <v>      -0.31250000       0.06250000       0.31250000 </v>
   <v>      -0.18750000       0.06250000       0.31250000 </v>
   <v>      -0.06250000       0.06250000       0.31250000 </v>
   <v>       0.06250000       0.18750000       0.31250000 </v>
   <v>       0.18750000       0.18750000       0.31250000 </v>
   <v>       0.31250000       0.18750000       0.31250000 </v>
   <v>       0.43750000       0.18750000       0.31250000 </v>
   <v>      -0.43750000       0.18750000       0.31250000 </v>
   <v>      -0.31250000       0.18750000       0.31250000 </v>
   <v>      -0.18750000       0.18750000       0.31250000 </v>
   <v>      -0.06250000       0.18750000       0.31250000 </v>
   <v>       0.06250000       0.31250000       0.31250000 </v>
   <v>       0.18750000       0.31250000       0.31250000 </v>
   <v>       0.31250000       0.31250000       0.31250000 </v>
   <v>       0.43750000       0.31250000       0.31250000 </v>
   <v>      -0.43750000       0.31250000       0.31250000 </v>
   <v>      -0.31250000       0.31250000       0.31250000 </v>
   <v>      -0.18750000       0.31250000       0.31250000 </v>
   <v>      -0.06250000       0.31250000       0.31250000 </v>
   <v>       0.06250000       0.43750000       0.31250000 </v>
   <v>       0.18750000       0.43750000       0.31250000 </v>
   <v>       0.31250000       0.43750000       0.31250000 </v>
   <v>       0.43750000       0.43750000       0.31250000 </v>
   <v>      -0.43750000       0.43750000       0.31250000 </v>
   <v>      -0.31250000       0.43750000       0.31250000 </v>
   <v>      -0.18750000       0.43750000       0.31250000 </v>
   <v>      -0.06250000       0.43750000       0.31250000 </v>
   <v>       0.06250000      -0.43750000       0.31250000 </v>
   <v>       0.18750000      -0.43750000       0.31250000 </v>
   <v>       0.31250000      -0.43750000       0.31250000 </v>
   <v>       0.43750000      -0.43750000       0.31250000 </v>
   <v>      -0.43750000      -0.43750000       0.31250000 </v>
   <v>      -0.31250000      -0.43750000       0.31250000 </v>
   <v>      -0.18750000      -0.43750000       0.31250000 </v>
   <v>      -0.06250000      -0.43750000       0.31250000 </v>
   <v>       0.06250000      -0.31250000       0.31250000 </v>
   <v>       0.18750000      -0.31250000       0.31250000 </v>
   <v>       0.31250000      -0.31250000       0.31250000 </v>
   <v>       0.43750000      -0.31250000       0.31250000 </v>
   <v>      -0.43750000      -0.31250000       0.31250000 </v>
   <v>      -0.31250000      -0.31250000       0.31250000 </v>
   <v>      -0.18750000      -0.31250000       0.31250000 </v>
   <v>      -0.06250000      -0.31250000       0.31250000 </v>
   <v>       0.06250000      -0.18750000       0.31250000 </v>
   <v>       0.18750000      -0.18750000       0.31250000 </v>
   <v>       0.31250000      -0.18750000       0.31250000 </v>
   <v>       0.43750000      -0.18750000       0.31250000 </v>
   <v>      -0.43750000      -0.18750000       0.31250000 </v>
   <v>      -0.31250000      -0.18750000       0.31250000 </v>
   <v>      -0.18750000      -0.18750000       0.31250000 </v>
   <v>      -0.06250000      -0.18750000       0.31250000 </v>
   <v>       0.06250000      -0.06250000       0.31250000 </v>
   <v>       0.18750000      -0.06250000       0.31250000 </v>
   <v>       0.31250000      -0.06250000       0.31250000 </v>
   <v>       0.43750000      -0.06250000       0.31250000 </v>
   <v>      -0.43750000      -0.06250000       0.31250000 </v>
   <v>      -0.31250000      -0.06250000       0.31250000 </v>
   <v>      -0.18750000      -0.06250000       0.31250000 </v>
   <v>      -0.06250000      -0.06250000       0.31250000 </v>
   <v>       0.06250000       0.06250000       0.43750000 </v>
   <v>       0.18750000       0.06250000       0.43750000 </v>
   <v>       0.31250000       0.06250000       0.43750000 </v>
   <v>       0.43750000       0.06250000       0.43750000 </v>
   <v>      -0.43750000       0.06250000       0.43750000 </v>
   <v>      -0.31250000       0.06250000       0.43750000 </v>
   <v>      -0.18750000       0.06250000       0.43750000 </v>
   <v>      -0.06250000       0.06250000       0.43750000 </v>
   <v>       0.06250000       0.18750000       0.43750000 </v>
   <v>       0.18750000       0.18750000       0.43750000 </v>
   <v>       0.31250000       0.18750000       0.43750000 </v>
   <v>       0.43750000       0.18750000       0.43750000 </v>
   <v>      -0.43750000       0.18750000       0.43750000 </v>
   <v>      -0.31250000       0.18750000       0.43750000 </v>
   <v>      -0.18750000       0.18750000       0.43750000 </v>
   <v>      -0.06250000       0.18750000       0.43750000 </v>
   <v>       0.06250000       0.31250000       0.43750000 </v>
   <v>       0.18750000       0.31250000       0.43750000 </v>
   <v>       0.31250000       0.31250000       0.43750000 </v>
   <v>       0.43750000       0.31250000       0.43750000 </v>
   <v>      -0.43750000       0.31250000       0.43750000 </v>
   <v>      -0.31250000       0.31250000       0.43750000 </v>
   <v>      -0.18750000       0.31250000       0.43750000 </v>
   <v>      -0.06250000       0.31250000       0.43750000 </v>
   <v>       0.06250000       0.43750000       0.43750000 </v>
   <v>       0.18750000       0.43750000       0.43750000 </v>
   <v>       0.31250000       0.43750000       0.43750000 </v>
   <v>       0.43750000       0.43750000       0.43750000 </v>
   <v>      -0.43750000       0.43750000       0.43750000 </v>
   <v>      -0.31250000       0.43750000       0.43750000 </v>
   <v>      -0.18750000       0.43750000       0.43750000 </v>
   <v>      -0.06250000       0.43750000       0.43750000 </v>
   <v>       0.06250000      -0.43750000       0.43750000 </v>
   <v>       0.18750000      -0.43750000       0.43750000 </v>
   <v>       0.31250000      -0.43750000       0.43750000 </v>
   <v>       0.43750000      -0.43750000       0.43750000 </v>
   <v>      -0.43750000      -0.43750000       0.43750000 </v>
   <v>      -0.31250000      -0.43750000       0.43750000 </v>
   <v>      -0.18750000      -0.43750000       0.43750000 </v>
   <v>      -0.06250000      -0.43750000       0.43750000 </v>
   <v>       0.06250000      -0.31250000       0.43750000 </v>
   <v>       0.18750000      -0.31250000       0.43750000 </v>
   <v>       0.31250000      -0.31250000       0.43750000 </v>
   <v>       0.43750000      -0.31250000       0.43750000 </v>
   <v>      -0.43750000      -0.31250000       0.43750000 </v>
   <v>      -0.31250000      -0.31250000       0.43750000 </v>
   <v>      -0.18750000      -0.31250000       0.43750000 </v>
   <v>      -0.06250000      -0.31250000       0.43750000 </v>
   <v>       0.06250000      -0.18750000       0.43750000 </v>
   <v>       0.18750000      -0.18750000       0.43750000 </v>
   <v>       0.31250000      -0.18750000       0.43750000 </v>
   <v>       0.43750000      -0.18750000       0.43750000 </v>
   <v>      -0.43750000      -0.18750000       0.43750000 </v>
   <v>      -0.31250000      -0.18750000       0.43750000 </v>
   <v>      -0.18750000      -0.18750000       0.43750000 </v>
   <v>      -0.06250000      -0.18750000       0.43750000 </v>
   <v>       0.06250000      -0.06250000       0.43750000 </v>
   <v>       0.18750000      -0.06250000       0.43750000 </v>
   <v>       0.31250000      -0.06250000       0.43750000 </v>
   <v>       0.43750000      -0.06250000       0.43750000 </v>
   <v>      -0.43750000      -0.06250000       0.43750000 </v>
   <v>      -0.31250000      -0.06250000       0.43750000 </v>
   <v>      -0.18750000      -0.06250000       0.43750000 </v>
   <v>      -0.06250000      -0.06250000       0.43750000 </v>
  </varray>
  <varray name="weights" >
   <v>       0.00390625 </v>
   <v>       0.00390625 </v>
   <v>       0.00390625 </v>
   <v>       0.00390625 </v>
   <v>       0.00390625 </v>
   <v>       0.00390625 </v>
   <v>       0.00390625 </v>
   <v>       0.00390625 </v>
   <v>       0.00390625 </v>
   <v>       0.00390625 </v>
   <v>       0.00390625 </v>
   <v>       0.00390625 </v>
   <v>       0.00390625 </v>
   <v>       0.00390625 </v>
   <v>       0.00390625 </v>
   <v>       0.00390625 </v>
   <v>       0.00390625 </v>
   <v>       0.00390625 </v>
   <v>       0.00390625 </v>
   <v>       0.00390625 </v>
   <v>       0.00390625 </v>
   <v>       0.00390625 </v>
   <v>       0.00390625 </v>
   <v>       0.00390625 </v>
   <v>       0.00390625 </v>
   <v>       0.00390625 </v>
   <v>       0.00390625 </v>
   <v>       0.00390625 </v>
   <v>       0.00390625 </v>
   <v>       0.00390625 </v>
   <v>       0.00390625 </v>
   <v>       0.00390625 </v>
   <v>       0.00390625 </v>
   <v>       0.00390625 </v>
   <v>       0.00390625 </v>
   <v>       0.00390625 </v>
   <v>       0.00390625 </v>
   <v>       0.00390625 </v>
   <v>       0.00390625 </v>
   <v>       0.00390625 </v>
   <v>       0.00390625 </v>
   <v>       0.00390625 </v>
   <v>       0.00390625 </v>
   <v>       0.00390625 </v>
   <v>       0.00390625 </v>
   <v>       0.00390625 </v>
   <v>       0.00390625 </v>
   <v>       0.00390625 </v>
   <v>       0.00390625 </v>
   <v>       0.00390625 </v>
   <v>       0.00390625 </v>
   <v>       0.00390625 </v>
   <v>       0.00390625 </v>
   <v>       0.00390625 </v>
   <v>       0.00390625 </v>
   <v>       0.00390625 </v>
   <v>       0.00390625 </v>
   <v>       0.00390625 </v>
   <v>       0.00390625 </v>
   <v>       0.00390625 </v>
   <v>       0.00390625 </v>
   <v>       0.00390625 </v>
   <v>       0.00390625 </v>
   <v>       0.00390625 </v>
   <v>       0.00390625 </v>
   <v>       0.00390625 </v>
   <v>       0.00390625 </v>
   <v>       0.00390625 </v>
   <v>       0.00390625 </v>
   <v>       0.00390625 </v>
   <v>       0.00390625 </v>
   <v>       0.00390625 </v>
   <v>       0.00390625 </v>
   <v>       0.00390625 </v>
   <v>       0.00390625 </v>
   <v>       0.00390625 </v>
   <v>       0.00390625 </v>
   <v>       0.00390625 </v>
   <v>       0.00390625 </v>
   <v>       0.00390625 </v>
   <v>       0.00390625 </v>
   <v>       0.00390625 </v>
   <v>       0.00390625 </v>
   <v>       0.00390625 </v>
   <v>       0.00390625 </v>
   <v>       0.00390625 </v>
   <v>       0.00390625 </v>
   <v>       0.00390625 </v>
   <v>       0.00390625 </v>
   <v>       0.00390625 </v>
   <v>       0.00390625 </v>
   <v>       0.00390625 </v>
   <v>       0.00390625 </v>
   <v>       0.00390625 </v>
   <v>       0.00390625 </v>
   <v>       0.00390625 </v>
   <v>       0.00390625 </v>
   <v>       0.00390625 </v>
   <v>       0.00390625 </v>
   <v>       0.00390625 </v>
   <v>       0.00390625 </v>
   <v>       0.00390625 </v>
   <v>       0.00390625 </v>
   <v>       0.00390625 </v>
   <v>       0.00390625 </v>
   <v>       0.00390625 </v>
   <v>       0.00390625 </v>
   <v>       0.00390625 </v>
   <v>       0.00390625 </v>
   <v>       0.00390625 </v>
   <v>       0.00390625 </v>
   <v>       0.00390625 </v>
   <v>       0.00390625 </v>
   <v>       0.00390625 </v>
   <v>       0.00390625 </v>
   <v>       0.00390625 </v>
   <v>       0.00390625 </v>
   <v>       0.00390625 </v>
   <v>       0.00390625 </v>
   <v>       0.00390625 </v>
   <v>       0.00390625 </v>
   <v>       0.00390625 </v>
   <v>       0.00390625 </v>
   <v>       0.00390625 </v>
   <v>       0.00390625 </v>
   <v>       0.00390625 </v>
   <v>       0.00390625 </v>
   <v>       0.00390625 </v>
   <v>       0.00390625 </v>
   <v>       0.00390625 </v>
   <v>       0.00390625 </v>
   <v>       0.00390625 </v>
   <v>       0.00390625 </v>
   <v>       0.00390625 </v>
   <v>       0.00390625 </v>
   <v>       0.00390625 </v>
   <v>       0.00390625 </v>
   <v>       0.00390625 </v>
   <v>       0.00390625 </v>
   <v>       0.00390625 </v>
   <v>       0.00390625 </v>
   <v>       0.00390625 </v>
   <v>       0.00390625 </v>
   <v>       0.00390625 </v>
   <v>       0.00390625 </v>
   <v>       0.00390625 </v>
   <v>       0.00390625 </v>
   <v>       0.00390625 </v>
   <v>       0.00390625 </v>
   <v>       0.00390625 </v>
   <v>       0.00390625 </v>
   <v>       0.00390625 </v>
   <v>       0.00390625 </v>
   <v>       0.00390625 </v>
   <v>       0.00390625 </v>
   <v>       0.00390625 </v>
   <v>       0.00390625 </v>
   <v>       0.00390625 </v>
   <v>       0.00390625 </v>
   <v>       0.00390625 </v>
   <v>       0.00390625 </v>
   <v>       0.00390625 </v>
   <v>       0.00390625 </v>
   <v>       0.00390625 </v>
   <v>       0.00390625 </v>
   <v>       0.00390625 </v>
   <v>       0.00390625 </v>
   <v>       0.00390625 </v>
   <v>       0.00390625 </v>
   <v>       0.00390625 </v>
   <v>       0.00390625 </v>
   <v>       0.00390625 </v>
   <v>       0.00390625 </v>
   <v>       0.00390625 </v>
   <v>       0.00390625 </v>
   <v>       0.00390625 </v>
   <v>       0.00390625 </v>
   <v>       0.00390625 </v>
   <v>       0.00390625 </v>
   <v>       0.00390625 </v>
   <v>       0.00390625 </v>
   <v>       0.00390625 </v>
   <v>       0.00390625 </v>
   <v>       0.00390625 </v>
   <v>       0.00390625 </v>
   <v>       0.00390625 </v>
   <v>       0.00390625 </v>
   <v>       0.00390625 </v>
   <v>       0.00390625 </v>
   <v>       0.00390625 </v>
   <v>       0.00390625 </v>
   <v>       0.00390625 </v>
   <v>       0.00390625 </v>
   <v>       0.00390625 </v>
   <v>       0.00390625 </v>
   <v>       0.00390625 </v>
   <v>       0.00390625 </v>
   <v>       0.00390625 </v>
   <v>       0.00390625 </v>
   <v>       0.00390625 </v>
   <v>       0.00390625 </v>
   <v>       0.00390625 </v>
   <v>       0.00390625 </v>
   <v>       0.00390625 </v>
   <v>       0.00390625 </v>
   <v>       0.00390625 </v>
   <v>       0.00390625 </v>
   <v>       0.00390625 </v>
   <v>       0.00390625 </v>
   <v>       0.00390625 </v>
   <v>       0.00390625 </v>
   <v>       0.00390625 </v>
   <v>       0.00390625 </v>
   <v>       0.00390625 </v>
   <v>       0.00390625 </v>
   <v>       0.00390625 </v>
   <v>       0.00390625 </v>
   <v>       0.00390625 </v>
   <v>       0.00390625 </v>
   <v>       0.00390625 </v>
   <v>       0.00390625 </v>
   <v>       0.00390625 </v>
   <v>       0.00390625 </v>
   <v>       0.00390625 </v>
   <v>       0.00390625 </v>
   <v>       0.00390625 </v>
   <v>       0.00390625 </v>
   <v>       0.00390625 </v>
   <v>       0.00390625 </v>
   <v>       0.00390625 </v>
   <v>       0.00390625 </v>
   <v>       0.00390625 </v>
   <v>       0.00390625 </v>
   <v>       0.00390625 </v>
   <v>       0.00390625 </v>
   <v>       0.00390625 </v>
   <v>       0.00390625 </v>
   <v>       0.00390625 </v>
   <v>       0.00390625 </v>
   <v>       0.00390625 </v>
   <v>       0.00390625 </v>
   <v>       0.00390625 </v>
   <v>       0.00390625 </v>
   <v>       0.00390625 </v>
   <v>       0.00390625 </v>
   <v>       0.00390625 </v>
   <v>       0.00390625 </v>
   <v>       0.00390625 </v>
   <v>       0.00390625 </v>
   <v>       0.00390625 </v>
   <v>       0.00390625 </v>
   <v>       0.00390625 </v>
   <v>       0.00390625 </v>
   <v>       0.00390625 </v>
   <v>       0.00390625 </v>
   <v>       0.00390625 </v>
  </varray>
 </kpoints>
 <parameters>
  <separator name="general" >
   <i type="string" name="SYSTEM">unknown system</i>
   <i type="logical" name="LCOMPAT"> F  </i>
  </separator>
  <separator name="electronic" >
   <i type="string" name="PREC">accura</i>
   <i name="ENMAX">    400.00000000</i>
   <i name="ENAUG">    322.06900000</i>
   <i name="EDIFF">      0.00010000</i>
   <i type="int" name="IALGO">    38</i>
   <i type="int" name="IWAVPR">    10</i>
   <i type="int" name="NBANDS">    24</i>
   <i name="NELECT">     32.00000000</i>
   <i type="int" name="TURBO">     0</i>
   <i type="int" name="IRESTART">     0</i>
   <i type="int" name="NREBOOT">     0</i>
   <i type="int" name="NMIN">     0</i>
   <i name="EREF">      0.00000000</i>
   <separator name="electronic smearing" >
    <i type="int" name="ISMEAR">     2</i>
    <i name="SIGMA">      0.01000000</i>
    <i name="KSPACING">      0.50000000</i>
    <i type="logical" name="KGAMMA"> T  </i>
   </separator>
   <separator name="electronic projectors" >
    <i type="logical" name="LREAL"> F  </i>
    <v name="ROPT">      0.00000000</v>
    <i type="int" name="LMAXPAW">  -100</i>
    <i type="int" name="LMAXMIX">     2</i>
    <i type="logical" name="NLSPLINE"> F  </i>
   </separator>
   <separator name="electronic startup" >
    <i type="int" name="ISTART">     0</i>
    <i type="int" name="ICHARG">     2</i>
    <i type="int" name="INIWAV">     1</i>
   </separator>
   <separator name="electronic spin" >
    <i type="int" name="ISPIN">     1</i>
    <i type="logical" name="LNONCOLLINEAR"> F  </i>
    <v name="MAGMOM">      1.00000000      1.00000000      1.00000000      1.00000000      1.00000000      1.00000000      1.00000000      1.00000000</v>
    <i name="NUPDOWN">     -1.00000000</i>
    <i type="logical" name="LSORBIT"> F  </i>
    <v name="SAXIS">      0.00000000      0.00000000      1.00000000</v>
    <i type="logical" name="LSPIRAL"> F  </i>
    <v name="QSPIRAL">      0.00000000      0.00000000      0.00000000</v>
    <i type="logical" name="LZEROZ"> F  </i>
   </separator>
   <separator name="electronic exchange-correlation" >
    <i type="logical" name="LASPH"> F  </i>
    <i type="logical" name="LMETAGGA"> F  </i>
   </separator>
   <separator name="electronic convergence" >
    <i type="int" name="NELM">    60</i>
    <i type="int" name="NELMDL">    -5</i>
    <i type="int" name="NELMIN">     2</i>
    <i name="ENINI">    400.00000000</i>
    <separator name="electronic convergence detail" >
     <i type="logical" name="LDIAG"> T  </i>
     <i type="logical" name="LSUBROT"> F  </i>
     <i name="WEIMIN">      0.00000000</i>
     <i name="EBREAK">      0.00000104</i>
     <i name="DEPER">      0.30000000</i>
     <i type="int" name="NRMM">     4</i>
     <i name="TIME">      0.40000000</i>
    </separator>
   </separator>
   <separator name="electronic mixer" >
    <i name="AMIX">      0.40000000</i>
    <i name="BMIX">      1.00000000</i>
    <i name="AMIN">      0.10000000</i>
    <i name="AMIX_MAG">      1.60000000</i>
    <i name="BMIX_MAG">      1.00000000</i>
    <separator name="electronic mixer details" >
     <i type="int" name="IMIX">     4</i>
     <i type="logical" name="MIXFIRST"> F  </i>
     <i type="int" name="MAXMIX">   -45</i>
     <i name="WC">    100.00000000</i>
     <i type="int" name="INIMIX">     1</i>
     <i type="int" name="MIXPRE">     1</i>
     <i type="int" name="MREMOVE">     5</i>
    </separator>
   </separator>
   <separator name="electronic dipolcorrection" >
    <i type="logical" name="LDIPOL"> F  </i>
    <i type="logical" name="LMONO"> F  </i>
    <i type="int" name="IDIPOL">     0</i>
    <i name="EPSILON">      1.00000000</i>
    <v name="DIPOL">   -100.00000000   -100.00000000   -100.00000000</v>
    <i name="EFIELD">      0.00000000</i>
   </separator>
  </separator>
  <separator name="grids" >
   <i type="int" name="NGX">    36</i>
   <i type="int" name="NGY">    36</i>
   <i type="int" name="NGZ">    36</i>
   <i type="int" name="NGXF">    72</i>
   <i type="int" name="NGYF">    72</i>
   <i type="int" name="NGZF">    72</i>
   <i type="logical" name="ADDGRID"> F  </i>
  </separator>
  <separator name="ionic" >
   <i type="int" name="NSW">     0</i>
   <i type="int" name="IBRION">    -1</i>
   <i type="int" name="ISIF">     2</i>
   <i name="PSTRESS">      0.00000000</i>
   <i name="EDIFFG">      0.00100000</i>
   <i type="int" name="NFREE">     0</i>
   <i name="POTIM">      0.50000000</i>
   <i name="SMASS">     -3.00000000</i>
   <i name="SCALEE">      1.00000000</i>
  </separator>
  <separator name="ionic md" >
   <i name="TEBEG">      0.00010000</i>
   <i name="TEEND">      0.00010000</i>
   <i type="int" name="NBLOCK">     1</i>
   <i type="int" name="KBLOCK">     1</i>
   <i type="int" name="NPACO">   256</i>
   <i name="APACO">     16.00000000</i>
  </separator>
  <separator name="symmetry" >
   <i type="int" name="ISYM">     2</i>
   <i name="SYMPREC">      0.00001000</i>
  </separator>
  <separator name="dos" >
   <i type="logical" name="LORBIT"> F  </i>
   <v name="RWIGS">     -1.00000000</v>
   <i type="int" name="NEDOS">   301</i>
   <i name="EMIN">     10.00000000</i>
   <i name="EMAX">    -10.00000000</i>
   <i name="EFERMI">      0.00000000</i>
  </separator>
  <separator name="writing" >
   <i type="int" name="NWRITE">     1</i>
   <i type="logical" name="LWAVE"> T  </i>
   <i type="logical" name="LCHARG"> T  </i>
   <i type="logical" name="LPARD"> F  </i>
   <i type="logical" name="LVTOT"> F  </i>
   <i type="logical" name="LVHAR"> F  </i>
   <i type="logical" name="LELF"> F  </i>
   <i type="logical" name="LOPTICS"> F  </i>
   <v name="STM">      0.00000000      0.00000000      0.00000000      0.00000000      0.00000000      0.00000000      0.00000000</v>
  </separator>
  <separator name="performance" >
   <i type="int" name="NPAR">     8</i>
   <i type="int" name="NSIM">     4</i>
   <i type="int" name="NBLK">    -1</i>
   <i type="logical" name="LPLANE"> T  </i>
   <i type="logical" name="LSCALAPACK"> T  </i>
   <i type="logical" name="LSCAAWARE"> F  </i>
   <i type="logical" name="LSCALU"> F  </i>
   <i type="logical" name="LASYNC"> F  </i>
   <i type="logical" name="LORBITALREAL"> F  </i>
  </separator>
  <separator name="miscellaneous" >
   <i type="int" name="IDIOT">     3</i>
   <i type="logical" name="LMUSIC"> F  </i>
   <v name="POMASS">     28.08500000</v>
   <v name="DARWINR">      0.00000000</v>
   <v name="DARWINV">      1.00000000</v>
   <i type="logical" name="LCORR"> T  </i>
  </separator>
  <i type="logical" name="GGA_COMPAT"> T  </i>
  <i type="logical" name="LBERRY"> F  </i>
  <i type="int" name="ICORELEVEL">     0</i>
  <i type="logical" name="LDAU"> F  </i>
  <i type="int" name="I_CONSTRAINED_M">     0</i>
  <separator name="electronic exchange-correlation" >
   <i type="string" name="GGA">--</i>
   <i type="int" name="VOSKOWN">     0</i>
   <i type="logical" name="LHFCALC"> F  </i>
   <i type="string" name="PRECFOCK"></i>
   <i type="logical" name="LSYMGRAD"> F  </i>
   <i type="logical" name="LHFONE"> F  </i>
   <i type="logical" name="LRHFCALC"> F  </i>
   <i type="logical" name="LTHOMAS"> F  </i>
   <i type="logical" name="LMODELHF"> F  </i>
   <i name="ENCUT4O">     -1.00000000</i>
   <i type="int" name="EXXOEP">     0</i>
   <i type="int" name="FOURORBIT">     0</i>
   <i name="AEXX">      0.00000000</i>
   <i name="HFALPHA">      0.00000000</i>
   <i name="MCALPHA">      0.00000000</i>
   <i name="ALDAX">      1.00000000</i>
   <i name="AGGAX">      1.00000000</i>
   <i name="ALDAC">      1.00000000</i>
   <i name="AGGAC">      1.00000000</i>
   <i type="int" name="NKREDX">     1</i>
   <i type="int" name="NKREDY">     1</i>
   <i type="int" name="NKREDZ">     1</i>
   <i type="logical" name="SHIFTRED"> F  </i>
   <i type="logical" name="ODDONLY"> F  </i>
   <i type="logical" name="EVENONLY"> F  </i>
   <i type="int" name="LMAXFOCK">     0</i>
   <i type="int" name="NMAXFOCKAE">     0</i>
   <i type="logical" name="LFOCKAEDFT"> F  </i>
   <i name="HFSCREEN">      0.00000000</i>
   <i name="HFSCREENC">      0.00000000</i>
   <i type="int" name="NBANDSGWLOW">     0</i>
  </separator>
  <separator name="vdW DFT" >
   <i type="logical" name="LUSE_VDW"> F  </i>
   <i name="Zab_VDW">     -0.84910000</i>
   <i name="PARAM1">      0.12340000</i>
   <i name="PARAM2">      1.00000000</i>
   <i name="PARAM3">      0.00000000</i>
  </separator>
  <separator name="model GW" >
   <i type="int" name="MODEL_GW">     0</i>
   <i name="MODEL_EPS0">     12.26874997</i>
   <i name="MODEL_ALPHA">      1.00000000</i>
  </separator>
  <separator name="linear response parameters" >
   <i type="logical" name="LEPSILON"> F  </i>
   <i type="logical" name="LRPA"> F  </i>
   <i type="logical" name="LNABLA"> F  </i>
   <i type="logical" name="LVEL"> F  </i>
   <i type="int" name="KINTER">     0</i>
   <i name="CSHIFT">      0.10000000</i>
   <i name="OMEGAMAX">     -1.00000000</i>
   <i name="DEG_THRESHOLD">      0.00200000</i>
  </separator>
  <separator name="orbital magnetization" >
   <i type="logical" name="NUCIND"> F  </i>
   <v name="MAGPOS">      0.00000000      0.00000000      0.00000000</v>
   <i type="logical" name="LNICSALL"> T  </i>
   <i type="logical" name="ORBITALMAG"> F  </i>
   <i type="logical" name="LMAGBLOCH"> F  </i>
   <i type="logical" name="LCHIMAG"> F  </i>
   <i type="logical" name="LGAUGE"> T  </i>
   <i type="int" name="MAGATOM">     0</i>
   <v name="MAGDIPOL">      0.00000000      0.00000000      0.00000000</v>
   <v name="AVECCONST">      0.00000000      0.00000000      0.00000000</v>
  </separator>
  <separator name="response functions" >
   <i type="logical" name="LADDER"> F  </i>
   <i type="logical" name="LFXC"> F  </i>
   <i type="logical" name="LHARTREE"> T  </i>
   <i type="int" name="IBSE">     0</i>
   <v type="int" name="KPOINT">    -1     0     0     0</v>
   <i type="logical" name="LTCTE"> F  </i>
   <i type="logical" name="LTETE"> F  </i>
   <i type="logical" name="LTRIPLET"> F  </i>
   <i type="logical" name="LFXCEPS"> F  </i>
   <i type="logical" name="LFXHEG"> F  </i>
   <i type="int" name="NATURALO">     0</i>
   <i type="logical" name="L2ORDER"> F  </i>
   <i type="logical" name="LUSEW"> F  </i>
   <i name="ENCUTGW">     -2.00000000</i>
   <i name="ENCUTGWSOFT">     -2.00000000</i>
   <i name="ENCUTLF">     -1.00000000</i>
   <i type="int" name="LMAXMP2">    -1</i>
   <i name="SCISSOR">      0.00000000</i>
   <i type="int" name="NOMEGA">     0</i>
   <i type="int" name="NOMEGAR">     0</i>
   <i type="int" name="NBANDSGW">    -1</i>
   <i type="int" name="NBANDSO">    -1</i>
   <i type="int" name="NBANDSV">    -1</i>
   <i type="int" name="NELM">     1</i>
   <i type="int" name="NELMHF">     1</i>
   <i type="int" name="DIM">     3</i>
   <i type="int" name="ANTIRES">     0</i>
   <i name="OMEGAMAX">    -30.00000000</i>
   <i name="OMEGAMIN">    -30.00000000</i>
   <i name="OMEGATL">   -200.00000000</i>
   <i type="int" name="OMEGAGRID">     0</i>
   <i name="CSHIFT">     -0.10000000</i>
   <i type="logical" name="SELFENERGY"> F  </i>
   <i type="logical" name="LSPECTRAL"> F  </i>
   <i type="logical" name="LSPECTRALGW"> F  </i>
   <i type="logical" name="LSINGLES"> F  </i>
   <i type="logical" name="LFERMIGW"> F  </i>
   <i type="logical" name="ODDONLYGW"> F  </i>
   <i type="logical" name="EVENONLYGW"> F  </i>
   <i type="int" name="NKREDLFX">     1</i>
   <i type="int" name="NKREDLFY">     1</i>
   <i type="int" name="NKREDLFZ">     1</i>
   <i type="int" name="MAXMEM">  1800</i>
   <i type="int" name="TELESCOPE">     0</i>
   <i type="int" name="TAUPAR">     1</i>
   <i type="int" name="OMEGAPAR">    -1</i>
   <i name="LAMBDA">      1.00000000</i>
  </separator>
  <separator name="External order field" >
   <i name="OFIELD_KAPPA">      0.00000000</i>
   <v name="OFIELD_K">      0.00000000      0.00000000      0.00000000</v>
   <i name="OFIELD_Q6_NEAR">      0.00000000</i>
   <i name="OFIELD_Q6_FAR">      0.00000000</i>
   <i name="OFIELD_A">      0.00000000</i>
  </separator>
 </parameters>
 <atominfo>
  <atoms>       8 </atoms>
  <types>       1 </types>
  <array name="atoms" >
   <dimension dim="1">ion</dimension>
   <field type="string">element</field>
   <field type="int">atomtype</field>
   <set>
    <rc><c>Si</c><c>   1</c></rc>
    <rc><c>Si</c><c>   1</c></rc>
    <rc><c>Si</c><c>   1</c></rc>
    <rc><c>Si</c><c>   1</c></rc>
    <rc><c>Si</c><c>   1</c></rc>
    <rc><c>Si</c><c>   1</c></rc>
    <rc><c>Si</c><c>   1</c></rc>
    <rc><c>Si</c><c>   1</c></rc>
   </set>
  </array>
  <array name="atomtypes" >
   <dimension dim="1">type</dimension>
   <field type="int">atomspertype</field>
   <field type="string">element</field>
   <field>mass</field>
   <field>valence</field>
   <field type="string">pseudopotential</field>
   <set>
    <rc><c>   8</c><c>Si</c><c>     28.08500000</c><c>      4.00000000</c><c>  PAW_PBE Si 05Jan2001                  </c></rc>
   </set>
  </array>
 </atominfo>
 <structure name="initialpos" >
  <crystal>
   <varray name="basis" >
    <v>       5.46906415       0.00000000       0.00000000 </v>
    <v>       0.00000000       5.46906415       0.00000000 </v>
    <v>       0.00000000       0.00000000       5.46906415 </v>
   </varray>
   <i name="volume">    163.58333295 </i>
   <varray name="rec_basis" >
    <v>       0.18284664       0.00000000       0.00000000 </v>
    <v>       0.00000000       0.18284664       0.00000000 </v>
    <v>       0.00000000       0.00000000       0.18284664 </v>
   </varray>
  </crystal>
  <varray name="positions" >
   <v>       0.14899310       0.00163757       0.08970604 </v>
   <v>       0.40450411       0.25698372       0.34119395 </v>
   <v>       0.64247735       0.51585525       0.09245153 </v>
   <v>       0.90020105       0.75301364       0.34023501 </v>
   <v>       0.65976973       0.00697668       0.59885386 </v>
   <v>       0.88639293       0.25803770       0.85083370 </v>
   <v>       0.15742681       0.49697514       0.58497313 </v>
   <v>       0.38290903       0.74750023       0.82957544 </v>
  </varray>
 </structure>
 <calculation>
  <scstep>
   <time name="dav">    6.16    6.21</time>
   <time name="total">    6.23    6.30</time>
   <energy>
    <i name="alphaZ">     13.17029267 </i>
    <i name="ewald">   -907.54286805 </i>
    <i name="hartreedc">    -45.36104799 </i>
    <i name="XCdc">    -74.74560702 </i>
    <i name="pawpsdc">    704.99039692 </i>
    <i name="pawaedc">   -564.24414232 </i>
    <i name="eentropy">      0.00001222 </i>
    <i name="bandstr">    103.65201045 </i>
    <i name="atom">    824.52596983 </i>
    <i name="e_fr_energy">     54.44501670 </i>
    <i name="e_wo_entrp">     54.44500448 </i>
    <i name="e_0_energy">     54.44501365 </i>
   </energy>
  </scstep>
  <scstep>
   <time name="dav">    7.58    7.59</time>
   <time name="total">    7.59    7.63</time>
   <energy>
    <i name="e_fr_energy">    -39.69828535 </i>
    <i name="e_wo_entrp">    -39.69828535 </i>
    <i name="e_0_energy">    -39.69828535 </i>
   </energy>
  </scstep>
  <scstep>
   <time name="dav">    7.51    7.53</time>
   <time name="total">    7.53    7.54</time>
   <energy>
    <i name="e_fr_energy">    -43.83380066 </i>
    <i name="e_wo_entrp">    -43.83380066 </i>
    <i name="e_0_energy">    -43.83380066 </i>
   </energy>
  </scstep>
  <scstep>
   <time name="dav">    7.30    7.30</time>
   <time name="total">    7.31    7.32</time>
   <energy>
    <i name="e_fr_energy">    -43.90390075 </i>
    <i name="e_wo_entrp">    -43.90390075 </i>
    <i name="e_0_energy">    -43.90390075 </i>
   </energy>
  </scstep>
  <scstep>
   <time name="dav">    7.59    7.61</time>
   <time name="total">    7.81    7.84</time>
   <energy>
    <i name="e_fr_energy">    -43.90560052 </i>
    <i name="e_wo_entrp">    -43.90560052 </i>
    <i name="e_0_energy">    -43.90560052 </i>
   </energy>
  </scstep>
  <scstep>
   <time name="dav">    7.09    7.10</time>
   <time name="total">    7.32    7.35</time>
   <energy>
    <i name="e_fr_energy">    -43.43429936 </i>
    <i name="e_wo_entrp">    -43.43429936 </i>
    <i name="e_0_energy">    -43.43429936 </i>
   </energy>
  </scstep>
  <scstep>
   <time name="dav">    6.96    6.96</time>
   <time name="total">    7.22    7.22</time>
   <energy>
    <i name="e_fr_energy">    -43.21987346 </i>
    <i name="e_wo_entrp">    -43.21987786 </i>
    <i name="e_0_energy">    -43.21987456 </i>
   </energy>
  </scstep>
  <scstep>
   <time name="dav">    7.32    7.33</time>
   <time name="total">    7.55    7.58</time>
   <energy>
    <i name="e_fr_energy">    -43.22401219 </i>
    <i name="e_wo_entrp">    -43.22401639 </i>
    <i name="e_0_energy">    -43.22401324 </i>
   </energy>
  </scstep>
  <scstep>
   <time name="dav">    7.45    7.45</time>
   <time name="total">    7.69    7.70</time>
   <energy>
    <i name="e_fr_energy">    -43.22493093 </i>
    <i name="e_wo_entrp">    -43.22493093 </i>
    <i name="e_0_energy">    -43.22493093 </i>
   </energy>
  </scstep>
  <scstep>
   <time name="dav">    7.15    7.14</time>
   <time name="total">    7.38    7.39</time>
   <energy>
    <i name="e_fr_energy">    -43.22511465 </i>
    <i name="e_wo_entrp">    -43.22511886 </i>
    <i name="e_0_energy">    -43.22511570 </i>
   </energy>
  </scstep>
  <scstep>
   <time name="dav">    5.82    5.82</time>
   <time name="total">    5.88    5.87</time>
   <energy>
    <i name="alphaZ">     13.17029267 </i>
    <i name="ewald">   -907.54286805 </i>
    <i name="hartreedc">    -60.66722786 </i>
    <i name="XCdc">    -72.25439020 </i>
    <i name="pawpsdc">   3314.45366563 </i>
    <i name="pawaedc">  -3174.53061032 </i>
    <i name="eentropy">      0.00000422 </i>
    <i name="bandstr">     19.62000467 </i>
    <i name="atom">    824.52596983 </i>
    <i name="e_fr_energy">    -43.22515941 </i>
    <i name="e_wo_entrp">    -43.22516362 </i>
    <i name="e_0_energy">    -43.22516046 </i>
   </energy>
  </scstep>
  <structure>
   <crystal>
    <varray name="basis" >
     <v>       5.46906415       0.00000000       0.00000000 </v>
     <v>       0.00000000       5.46906415       0.00000000 </v>
     <v>       0.00000000       0.00000000       5.46906415 </v>
    </varray>
    <i name="volume">    163.58333295 </i>
    <varray name="rec_basis" >
     <v>       0.18284664       0.00000000       0.00000000 </v>
     <v>       0.00000000       0.18284664       0.00000000 </v>
     <v>       0.00000000       0.00000000       0.18284664 </v>
    </varray>
   </crystal>
   <varray name="positions" >
    <v>       0.14899310       0.00163757       0.08970604 </v>
    <v>       0.40450411       0.25698372       0.34119395 </v>
    <v>       0.64247735       0.51585525       0.09245153 </v>
    <v>       0.90020105       0.75301364       0.34023501 </v>
    <v>       0.65976973       0.00697668       0.59885386 </v>
    <v>       0.88639293       0.25803770       0.85083370 </v>
    <v>       0.15742681       0.49697514       0.58497313 </v>
    <v>       0.38290903       0.74750023       0.82957544 </v>
   </varray>
  </structure>
  <varray name="forces" >
   <v>      -0.12170010       0.32708098       0.04593602 </v>
   <v>       0.27866516      -0.71525825      -0.20515767 </v>
   <v>      -0.22823787      -0.08012595      -0.15150277 </v>
   <v>       0.23620173       0.14643105       0.27022759 </v>
   <v>      -0.84199825      -0.41900583      -0.41738529 </v>
   <v>       1.00980158       0.23351524      -0.08244316 </v>
   <v>      -1.35195280      -0.30589696       0.07122020 </v>
   <v>       1.01922054       0.81325972       0.46910507 </v>
  </varray>
  <varray name="stress" >
   <v>      -0.63406852       3.04607370       3.04465096 </v>
   <v>       3.04607362       2.24836589      17.37489878 </v>
   <v>       3.04465087      17.37489869       2.03969445 </v>
  </varray>
  <energy>
   <i name="e_fr_energy">    -43.22515941 </i>
   <i name="e_wo_entrp">    -43.22516046 </i>
   <i name="e_0_energy">      0.00000422 </i>
  </energy>
  <time name="totalsc">   84.72   85.15</time>
  <eigenvalues>
   <array>
    <dimension dim="1">band</dimension>
    <dimension dim="2">kpoint</dimension>
    <dimension dim="3">spin</dimension>
    <field>eigene</field>
    <field>occ</field>
    <set>
     <set comment="spin 1">
      <set comment="kpoint 1">
       <r>   -6.1569    1.0000 </r>
       <r>   -2.6944    1.0000 </r>
       <r>   -2.6040    1.0000 </r>
       <r>   -2.5450    1.0000 </r>
       <r>   -1.6767    1.0000 </r>
       <r>   -1.6201    1.0000 </r>
       <r>   -1.5416    1.0000 </r>
       <r>    2.5131    1.0000 </r>
       <r>    2.6070    1.0000 </r>
       <r>    2.6423    1.0000 </r>
       <r>    2.8468    1.0000 </r>
       <r>    2.8903    1.0000 </r>
       <r>    2.9674    1.0000 </r>
       <r>    4.9116    1.0000 </r>
       <r>    5.5047    1.0000 </r>
       <r>    5.7374    1.0356 </r>
       <r>    6.3638    0.0000 </r>
       <r>    6.3795    0.0000 </r>
       <r>    6.4896    0.0000 </r>
       <r>    6.6431    0.0000 </r>
       <r>    6.7216    0.0000 </r>
       <r>    6.7578    0.0000 </r>
       <r>    8.1834    0.0000 </r>
       <r>    8.2690    0.0000 </r>
      </set>
      <set comment="kpoint 2">
       <r>   -6.0232    1.0000 </r>
       <r>   -3.4584    1.0000 </r>
       <r>   -2.5733    1.0000 </r>
       <r>   -2.5366    1.0000 </r>
       <r>   -1.6199    1.0000 </r>
       <r>   -1.5883    1.0000 </r>
       <r>   -0.6155    1.0000 </r>
       <r>    2.1699    1.0000 </r>
       <r>    2.1973    1.0000 </r>
       <r>    2.6594    1.0000 </r>
       <r>    2.7547    1.0000 </r>
       <r>    2.7827    1.0000 </r>
       <r>    3.0734    1.0000 </r>
       <r>    4.2445    1.0000 </r>
       <r>    5.1997    1.0000 </r>
       <r>    5.2695    1.0000 </r>
       <r>    6.4127    0.0000 </r>
       <r>    6.8042    0.0000 </r>
       <r>    6.8360    0.0000 </r>
       <r>    7.0642    0.0000 </r>
       <r>    7.5043    0.0000 </r>
       <r>    7.5288    0.0000 </r>
       <r>    8.0196    0.0000 </r>
       <r>    8.6609    0.0000 </r>
      </set>
      <set comment="kpoint 3">
       <r>   -5.7573    1.0000 </r>
       <r>   -4.2032    1.0000 </r>
       <r>   -2.4938    1.0000 </r>
       <r>   -2.4623    1.0000 </r>
       <r>   -1.5948    1.0000 </r>
       <r>   -1.5662    1.0000 </r>
       <r>    0.4174    1.0000 </r>
       <r>    1.8007    1.0000 </r>
       <r>    1.8242    1.0000 </r>
       <r>    2.4591    1.0000 </r>
       <r>    2.4811    1.0000 </r>
       <r>    2.9445    1.0000 </r>
       <r>    3.3111    1.0000 </r>
       <r>    3.3990    1.0000 </r>
       <r>    4.5678    1.0000 </r>
       <r>    4.6819    1.0000 </r>
       <r>    6.5331    0.0000 </r>
       <r>    7.5461    0.0000 </r>
       <r>    7.6243    0.0000 </r>
       <r>    7.7655    0.0000 </r>
       <r>    7.8121    0.0000 </r>
       <r>    8.6231    0.0000 </r>
       <r>    8.6589    0.0000 </r>
       <r>    9.3746    0.0000 </r>
      </set>
      <set comment="kpoint 4">
       <r>   -5.3623    1.0000 </r>
       <r>   -4.8411    1.0000 </r>
       <r>   -2.4284    1.0000 </r>
       <r>   -2.4038    1.0000 </r>
       <r>   -1.5822    1.0000 </r>
       <r>   -1.5582    1.0000 </r>
       <r>    1.4495    1.0000 </r>
       <r>    1.6079    1.0000 </r>
       <r>    1.6310    1.0000 </r>
       <r>    2.2474    1.0000 </r>
       <r>    2.2648    1.0000 </r>
       <r>    2.4601    1.0000 </r>
       <r>    3.3412    1.0000 </r>
       <r>    3.6687    1.0000 </r>
       <r>    3.9211    1.0000 </r>
       <r>    4.1321    1.0000 </r>
       <r>    6.7874    0.0000 </r>
       <r>    7.1446    0.0000 </r>
       <r>    8.4031    0.0000 </r>
       <r>    8.9685    0.0000 </r>
       <r>    9.0007    0.0000 </r>
       <r>    9.2738    0.0000 </r>
       <r>    9.8009    0.0000 </r>
       <r>    9.8414    0.0000 </r>
      </set>
      <set comment="kpoint 5">
       <r>   -5.3634    1.0000 </r>
       <r>   -4.8398    1.0000 </r>
       <r>   -2.4229    1.0000 </r>
       <r>   -2.4028    1.0000 </r>
       <r>   -1.5881    1.0000 </r>
       <r>   -1.5623    1.0000 </r>
       <r>    1.4215    1.0000 </r>
       <r>    1.6213    1.0000 </r>
       <r>    1.6385    1.0000 </r>
       <r>    2.2380    1.0000 </r>
       <r>    2.2614    1.0000 </r>
       <r>    2.4975    1.0000 </r>
       <r>    3.3790    1.0000 </r>
       <r>    3.6658    1.0000 </r>
       <r>    3.8684    1.0000 </r>
       <r>    4.1358    1.0000 </r>
       <r>    6.7781    0.0000 </r>
       <r>    7.1511    0.0000 </r>
       <r>    8.3990    0.0000 </r>
       <r>    8.9339    0.0000 </r>
       <r>    8.9702    0.0000 </r>
       <r>    9.2775    0.0000 </r>
       <r>    9.8449    0.0000 </r>
       <r>    9.8830    0.0000 </r>
      </set>
      <set comment="kpoint 6">
       <r>   -5.7581    1.0000 </r>
       <r>   -4.2022    1.0000 </r>
       <r>   -2.4801    1.0000 </r>
       <r>   -2.4587    1.0000 </r>
       <r>   -1.6109    1.0000 </r>
       <r>   -1.5757    1.0000 </r>
       <r>    0.4029    1.0000 </r>
       <r>    1.8219    1.0000 </r>
       <r>    1.8433    1.0000 </r>
       <r>    2.4429    1.0000 </r>
       <r>    2.4673    1.0000 </r>
       <r>    2.9688    1.0000 </r>
       <r>    3.3077    1.0000 </r>
       <r>    3.4536    1.0000 </r>
       <r>    4.5003    1.0000 </r>
       <r>    4.6866    1.0000 </r>
       <r>    6.5217    0.0000 </r>
       <r>    7.5213    0.0000 </r>
       <r>    7.6407    0.0000 </r>
       <r>    7.7207    0.0000 </r>
       <r>    7.7984    0.0000 </r>
       <r>    8.6622    0.0000 </r>
       <r>    8.6931    0.0000 </r>
       <r>    9.3807    0.0000 </r>
      </set>
      <set comment="kpoint 7">
       <r>   -6.0237    1.0000 </r>
       <r>   -3.4614    1.0000 </r>
       <r>   -2.5524    1.0000 </r>
       <r>   -2.5284    1.0000 </r>
       <r>   -1.6477    1.0000 </r>
       <r>   -1.5992    1.0000 </r>
       <r>   -0.6166    1.0000 </r>
       <r>    2.1913    1.0000 </r>
       <r>    2.2212    1.0000 </r>
       <r>    2.6639    1.0000 </r>
       <r>    2.7325    1.0000 </r>
       <r>    2.7851    1.0000 </r>
       <r>    3.0657    1.0000 </r>
       <r>    4.3061    1.0000 </r>
       <r>    5.1263    1.0000 </r>
       <r>    5.2751    1.0000 </r>
       <r>    6.3949    0.0000 </r>
       <r>    6.7698    0.0000 </r>
       <r>    6.7969    0.0000 </r>
       <r>    7.0663    0.0000 </r>
       <r>    7.5359    0.0000 </r>
       <r>    7.5667    0.0000 </r>
       <r>    8.0229    0.0000 </r>
       <r>    8.6681    0.0000 </r>
      </set>
      <set comment="kpoint 8">
       <r>   -6.1571    1.0000 </r>
       <r>   -2.7481    1.0000 </r>
       <r>   -2.5925    1.0000 </r>
       <r>   -2.4621    1.0000 </r>
       <r>   -1.7834    1.0000 </r>
       <r>   -1.6217    1.0000 </r>
       <r>   -1.4786    1.0000 </r>
       <r>    2.5136    1.0000 </r>
       <r>    2.6321    1.0000 </r>
       <r>    2.6601    1.0000 </r>
       <r>    2.8514    1.0000 </r>
       <r>    2.8741    1.0000 </r>
       <r>    2.9441    1.0000 </r>
       <r>    4.9604    1.0000 </r>
       <r>    5.4522    1.0000 </r>
       <r>    5.7441    0.9644 </r>
       <r>    6.3193    0.0000 </r>
       <r>    6.3483    0.0000 </r>
       <r>    6.4657    0.0000 </r>
       <r>    6.6802    0.0000 </r>
       <r>    6.7428    0.0000 </r>
       <r>    6.7851    0.0000 </r>
       <r>    8.1779    0.0000 </r>
       <r>    8.2267    0.0000 </r>
      </set>
      <set comment="kpoint 9">
       <r>   -6.0229    1.0000 </r>
       <r>   -3.4562    1.0000 </r>
       <r>   -2.6282    1.0000 </r>
       <r>   -2.4942    1.0000 </r>
       <r>   -1.6510    1.0000 </r>
       <r>   -1.5410    1.0000 </r>
       <r>   -0.6085    1.0000 </r>
       <r>    2.1091    1.0000 </r>
       <r>    2.2033    1.0000 </r>
       <r>    2.7229    1.0000 </r>
       <r>    2.7466    1.0000 </r>
       <r>    2.8153    1.0000 </r>
       <r>    3.0175    1.0000 </r>
       <r>    4.1901    1.0000 </r>
       <r>    5.1256    1.0000 </r>
       <r>    5.4270    1.0000 </r>
       <r>    6.3907    0.0000 </r>
       <r>    6.8121    0.0000 </r>
       <r>    6.9431    0.0000 </r>
       <r>    7.0687    0.0000 </r>
       <r>    7.4091    0.0000 </r>
       <r>    7.5169    0.0000 </r>
       <r>    8.0346    0.0000 </r>
       <r>    8.5926    0.0000 </r>
      </set>
      <set comment="kpoint 10">
       <r>   -5.8905    1.0000 </r>
       <r>   -3.3923    1.0000 </r>
       <r>   -3.3456    1.0000 </r>
       <r>   -2.5855    1.0000 </r>
       <r>   -1.5348    1.0000 </r>
       <r>   -0.7083    1.0000 </r>
       <r>   -0.6492    1.0000 </r>
       <r>    1.7250    1.0000 </r>
       <r>    2.2436    1.0000 </r>
       <r>    2.3324    1.0000 </r>
       <r>    2.9048    1.0000 </r>
       <r>    3.0138    1.0000 </r>
       <r>    3.0920    1.0000 </r>
       <r>    3.5027    1.0000 </r>
       <r>    4.8002    1.0000 </r>
       <r>    5.4393    1.0000 </r>
       <r>    6.6685    0.0000 </r>
       <r>    6.9025    0.0000 </r>
       <r>    6.9965    0.0000 </r>
       <r>    7.6994    0.0000 </r>
       <r>    7.7613    0.0000 </r>
       <r>    8.3107    0.0000 </r>
       <r>    8.4631    0.0000 </r>
       <r>    8.6245    0.0000 </r>
      </set>
      <set comment="kpoint 11">
       <r>   -5.6274    1.0000 </r>
       <r>   -4.0971    1.0000 </r>
       <r>   -3.2140    1.0000 </r>
       <r>   -2.6562    1.0000 </r>
       <r>   -1.4230    1.0000 </r>
       <r>   -0.8038    1.0000 </r>
       <r>    0.2309    1.0000 </r>
       <r>    1.4513    1.0000 </r>
       <r>    1.8895    1.0000 </r>
       <r>    2.5767    1.0000 </r>
       <r>    2.7118    1.0000 </r>
       <r>    2.7815    1.0000 </r>
       <r>    3.0820    1.0000 </r>
       <r>    3.3032    1.0000 </r>
       <r>    4.2052    1.0000 </r>
       <r>    5.0594    1.0000 </r>
       <r>    7.1329    0.0000 </r>
       <r>    7.2030    0.0000 </r>
       <r>    7.8488    0.0000 </r>
       <r>    8.1639    0.0000 </r>
       <r>    8.2071    0.0000 </r>
       <r>    8.8197    0.0000 </r>
       <r>    8.8752    0.0000 </r>
       <r>    9.4964    0.0000 </r>
      </set>
      <set comment="kpoint 12">
       <r>   -5.2376    1.0000 </r>
       <r>   -4.7236    1.0000 </r>
       <r>   -3.0157    1.0000 </r>
       <r>   -2.8006    1.0000 </r>
       <r>   -1.2473    1.0000 </r>
       <r>   -1.0040    1.0000 </r>
       <r>    1.1052    1.0000 </r>
       <r>    1.4228    1.0000 </r>
       <r>    1.5711    1.0000 </r>
       <r>    1.9238    1.0000 </r>
       <r>    2.7327    1.0000 </r>
       <r>    2.8600    1.0000 </r>
       <r>    3.0514    1.0000 </r>
       <r>    3.6104    1.0000 </r>
       <r>    3.7849    1.0000 </r>
       <r>    4.4150    1.0000 </r>
       <r>    7.4194    0.0000 </r>
       <r>    7.7682    0.0000 </r>
       <r>    8.2111    0.0000 </r>
       <r>    8.8868    0.0000 </r>
       <r>    9.0827    0.0000 </r>
       <r>    9.3895    0.0000 </r>
       <r>    9.4539    0.0000 </r>
       <r>   10.0526    0.0000 </r>
      </set>
      <set comment="kpoint 13">
       <r>   -5.2385    1.0000 </r>
       <r>   -4.7234    1.0000 </r>
       <r>   -2.9971    1.0000 </r>
       <r>   -2.8163    1.0000 </r>
       <r>   -1.2254    1.0000 </r>
       <r>   -1.0360    1.0000 </r>
       <r>    1.0751    1.0000 </r>
       <r>    1.4275    1.0000 </r>
       <r>    1.5847    1.0000 </r>
       <r>    1.9592    1.0000 </r>
       <r>    2.7315    1.0000 </r>
       <r>    2.8631    1.0000 </r>
       <r>    3.0814    1.0000 </r>
       <r>    3.5722    1.0000 </r>
       <r>    3.7881    1.0000 </r>
       <r>    4.4047    1.0000 </r>
       <r>    7.4085    0.0000 </r>
       <r>    7.7512    0.0000 </r>
       <r>    8.1985    0.0000 </r>
       <r>    8.8807    0.0000 </r>
       <r>    9.0610    0.0000 </r>
       <r>    9.4285    0.0000 </r>
       <r>    9.4628    0.0000 </r>
       <r>    9.9787    0.0000 </r>
      </set>
      <set comment="kpoint 14">
       <r>   -5.6283    1.0000 </r>
       <r>   -4.1024    1.0000 </r>
       <r>   -3.1875    1.0000 </r>
       <r>   -2.6685    1.0000 </r>
       <r>   -1.4096    1.0000 </r>
       <r>   -0.8518    1.0000 </r>
       <r>    0.2226    1.0000 </r>
       <r>    1.4638    1.0000 </r>
       <r>    1.9168    1.0000 </r>
       <r>    2.6144    1.0000 </r>
       <r>    2.7444    1.0000 </r>
       <r>    2.7739    1.0000 </r>
       <r>    3.0704    1.0000 </r>
       <r>    3.3026    1.0000 </r>
       <r>    4.1727    1.0000 </r>
       <r>    5.0447    1.0000 </r>
       <r>    7.1106    0.0000 </r>
       <r>    7.1475    0.0000 </r>
       <r>    7.8354    0.0000 </r>
       <r>    8.1257    0.0000 </r>
       <r>    8.2335    0.0000 </r>
       <r>    8.8416    0.0000 </r>
       <r>    8.9183    0.0000 </r>
       <r>    9.5068    0.0000 </r>
      </set>
      <set comment="kpoint 15">
       <r>   -5.8911    1.0000 </r>
       <r>   -3.4837    1.0000 </r>
       <r>   -3.2285    1.0000 </r>
       <r>   -2.5945    1.0000 </r>
       <r>   -1.5270    1.0000 </r>
       <r>   -0.8716    1.0000 </r>
       <r>   -0.5340    1.0000 </r>
       <r>    1.7409    1.0000 </r>
       <r>    2.2637    1.0000 </r>
       <r>    2.3738    1.0000 </r>
       <r>    2.8817    1.0000 </r>
       <r>    3.0104    1.0000 </r>
       <r>    3.0747    1.0000 </r>
       <r>    3.5489    1.0000 </r>
       <r>    4.7661    1.0000 </r>
       <r>    5.4341    1.0000 </r>
       <r>    6.6130    0.0000 </r>
       <r>    6.8114    0.0000 </r>
       <r>    7.0397    0.0000 </r>
       <r>    7.6762    0.0000 </r>
       <r>    7.8197    0.0000 </r>
       <r>    8.2804    0.0000 </r>
       <r>    8.5523    0.0000 </r>
       <r>    8.6009    0.0000 </r>
      </set>
      <set comment="kpoint 16">
       <r>   -6.0231    1.0000 </r>
       <r>   -3.4635    1.0000 </r>
       <r>   -2.6045    1.0000 </r>
       <r>   -2.4839    1.0000 </r>
       <r>   -1.6691    1.0000 </r>
       <r>   -1.5663    1.0000 </r>
       <r>   -0.6001    1.0000 </r>
       <r>    2.1167    1.0000 </r>
       <r>    2.2190    1.0000 </r>
       <r>    2.7231    1.0000 </r>
       <r>    2.7520    1.0000 </r>
       <r>    2.8384    1.0000 </r>
       <r>    2.9788    1.0000 </r>
       <r>    4.2245    1.0000 </r>
       <r>    5.0734    1.0000 </r>
       <r>    5.4504    1.0000 </r>
       <r>    6.3654    0.0000 </r>
       <r>    6.7681    0.0000 </r>
       <r>    6.9234    0.0000 </r>
       <r>    7.0831    0.0000 </r>
       <r>    7.4426    0.0000 </r>
       <r>    7.5557    0.0000 </r>
       <r>    8.0186    0.0000 </r>
       <r>    8.5612    0.0000 </r>
      </set>
      <set comment="kpoint 17">
       <r>   -5.7571    1.0000 </r>
       <r>   -4.2015    1.0000 </r>
       <r>   -2.5567    1.0000 </r>
       <r>   -2.4078    1.0000 </r>
       <r>   -1.6377    1.0000 </r>
       <r>   -1.5114    1.0000 </r>
       <r>    0.4366    1.0000 </r>
       <r>    1.7546    1.0000 </r>
       <r>    1.8374    1.0000 </r>
       <r>    2.4343    1.0000 </r>
       <r>    2.5299    1.0000 </r>
       <r>    2.9714    1.0000 </r>
       <r>    3.2399    1.0000 </r>
       <r>    3.3456    1.0000 </r>
       <r>    4.5726    1.0000 </r>
       <r>    4.7782    1.0000 </r>
       <r>    6.5188    0.0000 </r>
       <r>    7.5027    0.0000 </r>
       <r>    7.6846    0.0000 </r>
       <r>    7.7553    0.0000 </r>
       <r>    7.8960    0.0000 </r>
       <r>    8.5372    0.0000 </r>
       <r>    8.6818    0.0000 </r>
       <r>    9.3246    0.0000 </r>
      </set>
      <set comment="kpoint 18">
       <r>   -5.6277    1.0000 </r>
       <r>   -4.0978    1.0000 </r>
       <r>   -3.2070    1.0000 </r>
       <r>   -2.6627    1.0000 </r>
       <r>   -1.4087    1.0000 </r>
       <r>   -0.8397    1.0000 </r>
       <r>    0.2622    1.0000 </r>
       <r>    1.4563    1.0000 </r>
       <r>    1.8935    1.0000 </r>
       <r>    2.5411    1.0000 </r>
       <r>    2.7172    1.0000 </r>
       <r>    2.8075    1.0000 </r>
       <r>    3.0623    1.0000 </r>
       <r>    3.2831    1.0000 </r>
       <r>    4.2289    1.0000 </r>
       <r>    5.0688    1.0000 </r>
       <r>    7.0858    0.0000 </r>
       <r>    7.1898    0.0000 </r>
       <r>    7.9530    0.0000 </r>
       <r>    8.1311    0.0000 </r>
       <r>    8.2942    0.0000 </r>
       <r>    8.7366    0.0000 </r>
       <r>    8.8028    0.0000 </r>
       <r>    9.5825    0.0000 </r>
      </set>
      <set comment="kpoint 19">
       <r>   -5.3713    1.0000 </r>
       <r>   -3.9172    1.0000 </r>
       <r>   -3.8748    1.0000 </r>
       <r>   -2.9388    1.0000 </r>
       <r>   -1.1748    1.0000 </r>
       <r>   -0.1184    1.0000 </r>
       <r>   -0.0416    1.0000 </r>
       <r>    1.3282    1.0000 </r>
       <r>    1.9392    1.0000 </r>
       <r>    2.1358    1.0000 </r>
       <r>    2.1852    1.0000 </r>
       <r>    3.2665    1.0000 </r>
       <r>    3.3419    1.0000 </r>
       <r>    3.4947    1.0000 </r>
       <r>    3.6493    1.0000 </r>
       <r>    5.1327    1.0000 </r>
       <r>    7.1317    0.0000 </r>
       <r>    8.0397    0.0000 </r>
       <r>    8.1480    0.0000 </r>
       <r>    8.4792    0.0000 </r>
       <r>    9.0057    0.0000 </r>
       <r>    9.1967    0.0000 </r>
       <r>    9.2346    0.0000 </r>
       <r>    9.3560    0.0000 </r>
      </set>
      <set comment="kpoint 20">
       <r>   -4.9932    1.0000 </r>
       <r>   -4.4948    1.0000 </r>
       <r>   -3.6185    1.0000 </r>
       <r>   -3.2697    1.0000 </r>
       <r>   -0.8593    1.0000 </r>
       <r>   -0.4445    1.0000 </r>
       <r>    0.5963    1.0000 </r>
       <r>    1.2502    1.0000 </r>
       <r>    1.4395    1.0000 </r>
       <r>    1.7338    1.0000 </r>
       <r>    2.5458    1.0000 </r>
       <r>    3.0687    1.0000 </r>
       <r>    3.4323    1.0000 </r>
       <r>    3.5652    1.0000 </r>
       <r>    3.9892    1.0000 </r>
       <r>    4.6951    1.0000 </r>
       <r>    7.7275    0.0000 </r>
       <r>    8.3649    0.0000 </r>
       <r>    8.5936    0.0000 </r>
       <r>    8.7823    0.0000 </r>
       <r>    8.9601    0.0000 </r>
       <r>    9.1834    0.0000 </r>
       <r>    9.5283    0.0000 </r>
       <r>    9.7989    0.0000 </r>
      </set>
      <set comment="kpoint 21">
       <r>   -4.9932    1.0000 </r>
       <r>   -4.5004    1.0000 </r>
       <r>   -3.5923    1.0000 </r>
       <r>   -3.2897    1.0000 </r>
       <r>   -0.8249    1.0000 </r>
       <r>   -0.4990    1.0000 </r>
       <r>    0.5811    1.0000 </r>
       <r>    1.2842    1.0000 </r>
       <r>    1.4453    1.0000 </r>
       <r>    1.7352    1.0000 </r>
       <r>    2.5866    1.0000 </r>
       <r>    3.0262    1.0000 </r>
       <r>    3.4302    1.0000 </r>
       <r>    3.5672    1.0000 </r>
       <r>    4.0051    1.0000 </r>
       <r>    4.6782    1.0000 </r>
       <r>    7.6743    0.0000 </r>
       <r>    8.3746    0.0000 </r>
       <r>    8.5639    0.0000 </r>
       <r>    8.7889    0.0000 </r>
       <r>    8.9958    0.0000 </r>
       <r>    9.2781    0.0000 </r>
       <r>    9.4127    0.0000 </r>
       <r>    9.7958    0.0000 </r>
      </set>
      <set comment="kpoint 22">
       <r>   -5.3720    1.0000 </r>
       <r>   -4.0084    1.0000 </r>
       <r>   -3.7607    1.0000 </r>
       <r>   -2.9574    1.0000 </r>
       <r>   -1.1495    1.0000 </r>
       <r>   -0.3044    1.0000 </r>
       <r>    0.0762    1.0000 </r>
       <r>    1.3408    1.0000 </r>
       <r>    1.9792    1.0000 </r>
       <r>    2.1376    1.0000 </r>
       <r>    2.2357    1.0000 </r>
       <r>    3.2230    1.0000 </r>
       <r>    3.3771    1.0000 </r>
       <r>    3.4504    1.0000 </r>
       <r>    3.6640    1.0000 </r>
       <r>    5.1146    1.0000 </r>
       <r>    7.0781    0.0000 </r>
       <r>    7.9290    0.0000 </r>
       <r>    8.2247    0.0000 </r>
       <r>    8.4470    0.0000 </r>
       <r>    9.0560    0.0000 </r>
       <r>    9.1510    0.0000 </r>
       <r>    9.2885    0.0000 </r>
       <r>    9.3834    0.0000 </r>
      </set>
      <set comment="kpoint 23">
       <r>   -5.6283    1.0000 </r>
       <r>   -4.1069    1.0000 </r>
       <r>   -3.1702    1.0000 </r>
       <r>   -2.6796    1.0000 </r>
       <r>   -1.3900    1.0000 </r>
       <r>   -0.9063    1.0000 </r>
       <r>    0.2681    1.0000 </r>
       <r>    1.4727    1.0000 </r>
       <r>    1.9204    1.0000 </r>
       <r>    2.5907    1.0000 </r>
       <r>    2.7466    1.0000 </r>
       <r>    2.7861    1.0000 </r>
       <r>    3.0475    1.0000 </r>
       <r>    3.2714    1.0000 </r>
       <r>    4.2106    1.0000 </r>
       <r>    5.0538    1.0000 </r>
       <r>    7.0420    0.0000 </r>
       <r>    7.1258    0.0000 </r>
       <r>    7.9562    0.0000 </r>
       <r>    8.1802    0.0000 </r>
       <r>    8.3001    0.0000 </r>
       <r>    8.7357    0.0000 </r>
       <r>    8.7945    0.0000 </r>
       <r>    9.5970    0.0000 </r>
      </set>
      <set comment="kpoint 24">
       <r>   -5.7574    1.0000 </r>
       <r>   -4.2033    1.0000 </r>
       <r>   -2.5450    1.0000 </r>
       <r>   -2.3939    1.0000 </r>
       <r>   -1.6661    1.0000 </r>
       <r>   -1.5177    1.0000 </r>
       <r>    0.4353    1.0000 </r>
       <r>    1.7656    1.0000 </r>
       <r>    1.8547    1.0000 </r>
       <r>    2.4193    1.0000 </r>
       <r>    2.5231    1.0000 </r>
       <r>    3.0190    1.0000 </r>
       <r>    3.2089    1.0000 </r>
       <r>    3.3614    1.0000 </r>
       <r>    4.5343    1.0000 </r>
       <r>    4.7943    1.0000 </r>
       <r>    6.5014    0.0000 </r>
       <r>    7.4409    0.0000 </r>
       <r>    7.6737    0.0000 </r>
       <r>    7.8138    0.0000 </r>
       <r>    7.9033    0.0000 </r>
       <r>    8.5558    0.0000 </r>
       <r>    8.6789    0.0000 </r>
       <r>    9.3105    0.0000 </r>
      </set>
      <set comment="kpoint 25">
       <r>   -5.3669    1.0000 </r>
       <r>   -4.8334    1.0000 </r>
       <r>   -2.4987    1.0000 </r>
       <r>   -2.3310    1.0000 </r>
       <r>   -1.6494    1.0000 </r>
       <r>   -1.4969    1.0000 </r>
       <r>    1.4967    1.0000 </r>
       <r>    1.5842    1.0000 </r>
       <r>    1.6544    1.0000 </r>
       <r>    2.1990    1.0000 </r>
       <r>    2.3044    1.0000 </r>
       <r>    2.3798    1.0000 </r>
       <r>    3.3671    1.0000 </r>
       <r>    3.5991    1.0000 </r>
       <r>    4.0393    1.0000 </r>
       <r>    4.1163    1.0000 </r>
       <r>    6.7732    0.0000 </r>
       <r>    7.1229    0.0000 </r>
       <r>    8.4167    0.0000 </r>
       <r>    8.9675    0.0000 </r>
       <r>    9.1123    0.0000 </r>
       <r>    9.2504    0.0000 </r>
       <r>    9.7358    0.0000 </r>
       <r>    9.8566    0.0000 </r>
      </set>
      <set comment="kpoint 26">
       <r>   -5.2427    1.0000 </r>
       <r>   -4.7173    1.0000 </r>
       <r>   -3.0103    1.0000 </r>
       <r>   -2.7963    1.0000 </r>
       <r>   -1.2302    1.0000 </r>
       <r>   -1.0623    1.0000 </r>
       <r>    1.1589    1.0000 </r>
       <r>    1.4329    1.0000 </r>
       <r>    1.6096    1.0000 </r>
       <r>    1.8749    1.0000 </r>
       <r>    2.7283    1.0000 </r>
       <r>    2.8460    1.0000 </r>
       <r>    3.0150    1.0000 </r>
       <r>    3.6476    1.0000 </r>
       <r>    3.8019    1.0000 </r>
       <r>    4.4027    1.0000 </r>
       <r>    7.3605    0.0000 </r>
       <r>    7.7502    0.0000 </r>
       <r>    8.2130    0.0000 </r>
       <r>    8.9265    0.0000 </r>
       <r>    9.1955    0.0000 </r>
       <r>    9.3760    0.0000 </r>
       <r>    9.4326    0.0000 </r>
       <r>   10.0431    0.0000 </r>
      </set>
      <set comment="kpoint 27">
       <r>   -4.9981    1.0000 </r>
       <r>   -4.4900    1.0000 </r>
       <r>   -3.6164    1.0000 </r>
       <r>   -3.2639    1.0000 </r>
       <r>   -0.8573    1.0000 </r>
       <r>   -0.5061    1.0000 </r>
       <r>    0.6544    1.0000 </r>
       <r>    1.2414    1.0000 </r>
       <r>    1.4478    1.0000 </r>
       <r>    1.7755    1.0000 </r>
       <r>    2.4951    1.0000 </r>
       <r>    3.0964    1.0000 </r>
       <r>    3.4199    1.0000 </r>
       <r>    3.5518    1.0000 </r>
       <r>    4.0005    1.0000 </r>
       <r>    4.6875    1.0000 </r>
       <r>    7.7326    0.0000 </r>
       <r>    8.2540    0.0000 </r>
       <r>    8.6849    0.0000 </r>
       <r>    8.8021    0.0000 </r>
       <r>    8.8355    0.0000 </r>
       <r>    9.2954    0.0000 </r>
       <r>    9.5061    0.0000 </r>
       <r>    9.8473    0.0000 </r>
      </set>
      <set comment="kpoint 28">
       <r>   -4.6442    1.0000 </r>
       <r>   -4.1819    1.0000 </r>
       <r>   -4.1461    1.0000 </r>
       <r>   -3.7230    1.0000 </r>
       <r>   -0.4346    1.0000 </r>
       <r>    0.0433    1.0000 </r>
       <r>    0.1314    1.0000 </r>
       <r>    0.6326    1.0000 </r>
       <r>    1.6567    1.0000 </r>
       <r>    2.0274    1.0000 </r>
       <r>    2.0916    1.0000 </r>
       <r>    2.5621    1.0000 </r>
       <r>    4.0213    1.0000 </r>
       <r>    4.1225    1.0000 </r>
       <r>    4.1638    1.0000 </r>
       <r>    4.6408    1.0000 </r>
       <r>    7.7390    0.0000 </r>
       <r>    8.2380    0.0000 </r>
       <r>    8.3171    0.0000 </r>
       <r>    8.3465    0.0000 </r>
       <r>    9.5682    0.0000 </r>
       <r>    9.6735    0.0000 </r>
       <r>    9.7863    0.0000 </r>
       <r>    9.9998    0.0000 </r>
      </set>
      <set comment="kpoint 29">
       <r>   -4.6393    1.0000 </r>
       <r>   -4.2720    1.0000 </r>
       <r>   -4.0339    1.0000 </r>
       <r>   -3.7484    1.0000 </r>
       <r>   -0.3819    1.0000 </r>
       <r>   -0.1427    1.0000 </r>
       <r>    0.2463    1.0000 </r>
       <r>    0.6472    1.0000 </r>
       <r>    1.6663    1.0000 </r>
       <r>    1.9992    1.0000 </r>
       <r>    2.1475    1.0000 </r>
       <r>    2.5325    1.0000 </r>
       <r>    4.0138    1.0000 </r>
       <r>    4.0811    1.0000 </r>
       <r>    4.2337    1.0000 </r>
       <r>    4.6160    1.0000 </r>
       <r>    7.6901    0.0000 </r>
       <r>    8.2666    0.0000 </r>
       <r>    8.2963    0.0000 </r>
       <r>    8.4016    0.0000 </r>
       <r>    9.4100    0.0000 </r>
       <r>    9.7155    0.0000 </r>
       <r>    9.8629    0.0000 </r>
       <r>   10.0098    0.0000 </r>
      </set>
      <set comment="kpoint 30">
       <r>   -4.9981    1.0000 </r>
       <r>   -4.4989    1.0000 </r>
       <r>   -3.5822    1.0000 </r>
       <r>   -3.2842    1.0000 </r>
       <r>   -0.8239    1.0000 </r>
       <r>   -0.5830    1.0000 </r>
       <r>    0.6577    1.0000 </r>
       <r>    1.2723    1.0000 </r>
       <r>    1.4595    1.0000 </r>
       <r>    1.7972    1.0000 </r>
       <r>    2.5134    1.0000 </r>
       <r>    3.0609    1.0000 </r>
       <r>    3.4113    1.0000 </r>
       <r>    3.5549    1.0000 </r>
       <r>    4.0205    1.0000 </r>
       <r>    4.6641    1.0000 </r>
       <r>    7.6698    0.0000 </r>
       <r>    8.2608    0.0000 </r>
       <r>    8.7071    0.0000 </r>
       <r>    8.7805    0.0000 </r>
       <r>    8.8058    0.0000 </r>
       <r>    9.3746    0.0000 </r>
       <r>    9.4665    0.0000 </r>
       <r>    9.8546    0.0000 </r>
      </set>
      <set comment="kpoint 31">
       <r>   -5.2432    1.0000 </r>
       <r>   -4.7197    1.0000 </r>
       <r>   -2.9776    1.0000 </r>
       <r>   -2.8149    1.0000 </r>
       <r>   -1.2053    1.0000 </r>
       <r>   -1.1216    1.0000 </r>
       <r>    1.1465    1.0000 </r>
       <r>    1.4517    1.0000 </r>
       <r>    1.6321    1.0000 </r>
       <r>    1.9023    1.0000 </r>
       <r>    2.7400    1.0000 </r>
       <r>    2.8284    1.0000 </r>
       <r>    3.0189    1.0000 </r>
       <r>    3.6351    1.0000 </r>
       <r>    3.8064    1.0000 </r>
       <r>    4.3830    1.0000 </r>
       <r>    7.3320    0.0000 </r>
       <r>    7.6944    0.0000 </r>
       <r>    8.2433    0.0000 </r>
       <r>    8.9422    0.0000 </r>
       <r>    9.1931    0.0000 </r>
       <r>    9.3698    0.0000 </r>
       <r>    9.4702    0.0000 </r>
       <r>   10.0386    0.0000 </r>
      </set>
      <set comment="kpoint 32">
       <r>   -5.3671    1.0000 </r>
       <r>   -4.8339    1.0000 </r>
       <r>   -2.4962    1.0000 </r>
       <r>   -2.3098    1.0000 </r>
       <r>   -1.6896    1.0000 </r>
       <r>   -1.4879    1.0000 </r>
       <r>    1.4864    1.0000 </r>
       <r>    1.5960    1.0000 </r>
       <r>    1.6743    1.0000 </r>
       <r>    2.1797    1.0000 </r>
       <r>    2.3003    1.0000 </r>
       <r>    2.3993    1.0000 </r>
       <r>    3.4115    1.0000 </r>
       <r>    3.5594    1.0000 </r>
       <r>    4.0185    1.0000 </r>
       <r>    4.1252    1.0000 </r>
       <r>    6.7611    0.0000 </r>
       <r>    7.1159    0.0000 </r>
       <r>    8.4223    0.0000 </r>
       <r>    8.9566    0.0000 </r>
       <r>    9.0992    0.0000 </r>
       <r>    9.2560    0.0000 </r>
       <r>    9.7717    0.0000 </r>
       <r>    9.8937    0.0000 </r>
      </set>
      <set comment="kpoint 33">
       <r>   -5.3728    1.0000 </r>
       <r>   -4.8252    1.0000 </r>
       <r>   -2.4935    1.0000 </r>
       <r>   -2.3183    1.0000 </r>
       <r>   -1.6696    1.0000 </r>
       <r>   -1.5068    1.0000 </r>
       <r>    1.3826    1.0000 </r>
       <r>    1.6232    1.0000 </r>
       <r>    1.6886    1.0000 </r>
       <r>    2.1682    1.0000 </r>
       <r>    2.2806    1.0000 </r>
       <r>    2.5439    1.0000 </r>
       <r>    3.4940    1.0000 </r>
       <r>    3.5950    1.0000 </r>
       <r>    3.8955    1.0000 </r>
       <r>    4.0766    1.0000 </r>
       <r>    6.7459    0.0000 </r>
       <r>    7.1441    0.0000 </r>
       <r>    8.3973    0.0000 </r>
       <r>    8.8392    0.0000 </r>
       <r>    8.9746    0.0000 </r>
       <r>    9.2961    0.0000 </r>
       <r>    9.9104    0.0000 </r>
       <r>   10.0417    0.0000 </r>
      </set>
      <set comment="kpoint 34">
       <r>   -5.2489    1.0000 </r>
       <r>   -4.7097    1.0000 </r>
       <r>   -3.0253    1.0000 </r>
       <r>   -2.7606    1.0000 </r>
       <r>   -1.3057    1.0000 </r>
       <r>   -1.0231    1.0000 </r>
       <r>    1.0441    1.0000 </r>
       <r>    1.4574    1.0000 </r>
       <r>    1.6413    1.0000 </r>
       <r>    2.0107    1.0000 </r>
       <r>    2.6823    1.0000 </r>
       <r>    2.8662    1.0000 </r>
       <r>    3.1659    1.0000 </r>
       <r>    3.4997    1.0000 </r>
       <r>    3.7530    1.0000 </r>
       <r>    4.4164    1.0000 </r>
       <r>    7.3638    0.0000 </r>
       <r>    7.6792    0.0000 </r>
       <r>    8.2341    0.0000 </r>
       <r>    8.8889    0.0000 </r>
       <r>    8.9615    0.0000 </r>
       <r>    9.4653    0.0000 </r>
       <r>    9.5541    0.0000 </r>
       <r>   10.0166    0.0000 </r>
      </set>
      <set comment="kpoint 35">
       <r>   -5.0043    1.0000 </r>
       <r>   -4.4867    1.0000 </r>
       <r>   -3.6097    1.0000 </r>
       <r>   -3.2536    1.0000 </r>
       <r>   -0.9017    1.0000 </r>
       <r>   -0.4999    1.0000 </r>
       <r>    0.5607    1.0000 </r>
       <r>    1.3550    1.0000 </r>
       <r>    1.4916    1.0000 </r>
       <r>    1.7644    1.0000 </r>
       <r>    2.6367    1.0000 </r>
       <r>    2.9623    1.0000 </r>
       <r>    3.3895    1.0000 </r>
       <r>    3.5672    1.0000 </r>
       <r>    3.9803    1.0000 </r>
       <r>    4.6938    1.0000 </r>
       <r>    7.6570    0.0000 </r>
       <r>    8.3294    0.0000 </r>
       <r>    8.5198    0.0000 </r>
       <r>    8.8036    0.0000 </r>
       <r>    9.0222    0.0000 </r>
       <r>    9.2111    0.0000 </r>
       <r>    9.3878    0.0000 </r>
       <r>    9.8262    0.0000 </r>
      </set>
      <set comment="kpoint 36">
       <r>   -4.6469    1.0000 </r>
       <r>   -4.2736    1.0000 </r>
       <r>   -4.0330    1.0000 </r>
       <r>   -3.7296    1.0000 </r>
       <r>   -0.4558    1.0000 </r>
       <r>   -0.1473    1.0000 </r>
       <r>    0.2402    1.0000 </r>
       <r>    0.7136    1.0000 </r>
       <r>    1.7210    1.0000 </r>
       <r>    2.0200    1.0000 </r>
       <r>    2.1682    1.0000 </r>
       <r>    2.4677    1.0000 </r>
       <r>    4.0057    1.0000 </r>
       <r>    4.0677    1.0000 </r>
       <r>    4.2196    1.0000 </r>
       <r>    4.6266    1.0000 </r>
       <r>    7.6864    0.0000 </r>
       <r>    8.2636    0.0000 </r>
       <r>    8.3066    0.0000 </r>
       <r>    8.4172    0.0000 </r>
       <r>    9.3382    0.0000 </r>
       <r>    9.6475    0.0000 </r>
       <r>    9.7766    0.0000 </r>
       <r>    9.9616    0.0000 </r>
      </set>
      <set comment="kpoint 37">
       <r>   -4.6558    1.0000 </r>
       <r>   -4.1862    1.0000 </r>
       <r>   -4.1398    1.0000 </r>
       <r>   -3.6981    1.0000 </r>
       <r>   -0.5320    1.0000 </r>
       <r>    0.0316    1.0000 </r>
       <r>    0.1230    1.0000 </r>
       <r>    0.7231    1.0000 </r>
       <r>    1.7395    1.0000 </r>
       <r>    2.0540    1.0000 </r>
       <r>    2.1126    1.0000 </r>
       <r>    2.4773    1.0000 </r>
       <r>    4.0111    1.0000 </r>
       <r>    4.1093    1.0000 </r>
       <r>    4.1351    1.0000 </r>
       <r>    4.6573    1.0000 </r>
       <r>    7.7355    0.0000 </r>
       <r>    8.2694    0.0000 </r>
       <r>    8.3150    0.0000 </r>
       <r>    8.3405    0.0000 </r>
       <r>    9.4513    0.0000 </r>
       <r>    9.5646    0.0000 </r>
       <r>    9.6919    0.0000 </r>
       <r>    9.9393    0.0000 </r>
      </set>
      <set comment="kpoint 38">
       <r>   -5.0072    1.0000 </r>
       <r>   -4.4801    1.0000 </r>
       <r>   -3.6331    1.0000 </r>
       <r>   -3.2241    1.0000 </r>
       <r>   -0.9676    1.0000 </r>
       <r>   -0.4494    1.0000 </r>
       <r>    0.5677    1.0000 </r>
       <r>    1.3449    1.0000 </r>
       <r>    1.5145    1.0000 </r>
       <r>    1.7755    1.0000 </r>
       <r>    2.6094    1.0000 </r>
       <r>    2.9826    1.0000 </r>
       <r>    3.3848    1.0000 </r>
       <r>    3.5571    1.0000 </r>
       <r>    3.9499    1.0000 </r>
       <r>    4.7182    1.0000 </r>
       <r>    7.7242    0.0000 </r>
       <r>    8.2696    0.0000 </r>
       <r>    8.5011    0.0000 </r>
       <r>    8.8190    0.0000 </r>
       <r>    8.9943    0.0000 </r>
       <r>    9.1700    0.0000 </r>
       <r>    9.4050    0.0000 </r>
       <r>    9.8571    0.0000 </r>
[...]
       <r>   -4.1079    1.0000 </r>
       <r>   -3.7386    1.0000 </r>
       <r>   -0.4506    1.0000 </r>
       <r>   -0.0194    1.0000 </r>
       <r>    0.0969    1.0000 </r>
       <r>    0.7308    1.0000 </r>
       <r>    1.7344    1.0000 </r>
       <r>    2.0497    1.0000 </r>
       <r>    2.1335    1.0000 </r>
       <r>    2.4735    1.0000 </r>
       <r>    3.9925    1.0000 </r>
       <r>    4.0937    1.0000 </r>
       <r>    4.1992    1.0000 </r>
       <r>    4.6204    1.0000 </r>
       <r>    7.6806    0.0000 </r>
       <r>    8.2720    0.0000 </r>
       <r>    8.3002    0.0000 </r>
       <r>    8.4251    0.0000 </r>
       <r>    9.4262    0.0000 </r>
       <r>    9.5350    0.0000 </r>
       <r>    9.7715    0.0000 </r>
       <r>    9.9618    0.0000 </r>
      </set>
      <set comment="kpoint 254">
       <r>   -4.9991    1.0000 </r>
       <r>   -4.4850    1.0000 </r>
       <r>   -3.6136    1.0000 </r>
       <r>   -3.2676    1.0000 </r>
       <r>   -0.8959    1.0000 </r>
       <r>   -0.4757    1.0000 </r>
       <r>    0.5212    1.0000 </r>
       <r>    1.3633    1.0000 </r>
       <r>    1.5111    1.0000 </r>
       <r>    1.7699    1.0000 </r>
       <r>    2.6305    1.0000 </r>
       <r>    2.9769    1.0000 </r>
       <r>    3.4096    1.0000 </r>
       <r>    3.5319    1.0000 </r>
       <r>    3.9855    1.0000 </r>
       <r>    4.6803    1.0000 </r>
       <r>    7.6733    0.0000 </r>
       <r>    8.3545    0.0000 </r>
       <r>    8.4881    0.0000 </r>
       <r>    8.7992    0.0000 </r>
       <r>    8.9964    0.0000 </r>
       <r>    9.1753    0.0000 </r>
       <r>    9.3879    0.0000 </r>
       <r>    9.8702    0.0000 </r>
      </set>
      <set comment="kpoint 255">
       <r>   -5.2423    1.0000 </r>
       <r>   -4.7154    1.0000 </r>
       <r>   -3.0197    1.0000 </r>
       <r>   -2.7802    1.0000 </r>
       <r>   -1.2988    1.0000 </r>
       <r>   -1.0112    1.0000 </r>
       <r>    1.0169    1.0000 </r>
       <r>    1.4670    1.0000 </r>
       <r>    1.6472    1.0000 </r>
       <r>    2.0227    1.0000 </r>
       <r>    2.6944    1.0000 </r>
       <r>    2.8603    1.0000 </r>
       <r>    3.1677    1.0000 </r>
       <r>    3.5080    1.0000 </r>
       <r>    3.7481    1.0000 </r>
       <r>    4.4011    1.0000 </r>
       <r>    7.3772    0.0000 </r>
       <r>    7.7310    0.0000 </r>
       <r>    8.1581    0.0000 </r>
       <r>    8.8304    0.0000 </r>
       <r>    8.9813    0.0000 </r>
       <r>    9.4557    0.0000 </r>
       <r>    9.5674    0.0000 </r>
       <r>   10.0022    0.0000 </r>
      </set>
      <set comment="kpoint 256">
       <r>   -5.3649    1.0000 </r>
       <r>   -4.8338    1.0000 </r>
       <r>   -2.4846    1.0000 </r>
       <r>   -2.3508    1.0000 </r>
       <r>   -1.6564    1.0000 </r>
       <r>   -1.4904    1.0000 </r>
       <r>    1.3589    1.0000 </r>
       <r>    1.6209    1.0000 </r>
       <r>    1.7018    1.0000 </r>
       <r>    2.1749    1.0000 </r>
       <r>    2.2751    1.0000 </r>
       <r>    2.5452    1.0000 </r>
       <r>    3.5338    1.0000 </r>
       <r>    3.5944    1.0000 </r>
       <r>    3.8874    1.0000 </r>
       <r>    4.0566    1.0000 </r>
       <r>    6.7586    0.0000 </r>
       <r>    7.1531    0.0000 </r>
       <r>    8.3752    0.0000 </r>
       <r>    8.8436    0.0000 </r>
       <r>    8.9213    0.0000 </r>
       <r>    9.2786    0.0000 </r>
       <r>    9.9187    0.0000 </r>
       <r>   10.0447    0.0000 </r>
      </set>
     </set>
    </set>
   </array>
  </eigenvalues>
  <separator name="orbital magnetization" >
   <v name="MAGDIPOLOUT">      0.00000000      0.00000000      0.00000000</v>
  </separator>
  <dos>
   <i name="efermi">      5.74959763 </i>
   <total>
    <array>
     <dimension dim="1">gridpoints</dimension>
     <dimension dim="2">spin</dimension>
     <field>energy</field>
     <field>total</field>
     <field>integrated</field>
     <set>
      <set comment="spin 1">
       <r>    -6.9787     0.0000     0.0000 </r>
       <r>    -6.9185     0.0000     0.0000 </r>
       <r>    -6.8583     0.0000     0.0000 </r>
       <r>    -6.7981     0.0000     0.0000 </r>
       <r>    -6.7379     0.0000     0.0000 </r>
       <r>    -6.6777     0.0000     0.0000 </r>
       <r>    -6.6175     0.0000     0.0000 </r>
       <r>    -6.5573     0.0000     0.0000 </r>
       <r>    -6.4971     0.0000     0.0000 </r>
       <r>    -6.4369     0.0000     0.0000 </r>
       <r>    -6.3768     0.0000     0.0000 </r>
       <r>    -6.3166     0.0000     0.0000 </r>
       <r>    -6.2564     0.0000     0.0000 </r>
       <r>    -6.1962     0.0000     0.0000 </r>
       <r>    -6.1360     0.5168     0.0311 </r>
       <r>    -6.0758     0.0000     0.0313 </r>
       <r>    -6.0156     1.6191     0.1287 </r>
       <r>    -5.9554    -0.0617     0.1250 </r>
       <r>    -5.8952     0.3193     0.1442 </r>
       <r>    -5.8350     1.2381     0.2187 </r>
       <r>    -5.7748    -0.0206     0.2175 </r>
       <r>    -5.7146     2.0971     0.3437 </r>
       <r>    -5.6544     0.0067     0.3442 </r>
       <r>    -5.5942     3.1078     0.5312 </r>
       <r>    -5.5340     0.0015     0.5313 </r>
       <r>    -5.4738     1.5530     0.6248 </r>
       <r>    -5.4136     0.0007     0.6250 </r>
       <r>    -5.3534     3.1480     0.8145 </r>
       <r>    -5.2932    -0.0344     0.8125 </r>
       <r>    -5.2330     4.2765     1.0699 </r>
       <r>    -5.1728     0.3937     1.0938 </r>
       <r>    -5.1126     1.1551     1.1633 </r>
       <r>    -5.0524     0.4019     1.1875 </r>
       <r>    -4.9922     2.5073     1.3385 </r>
       <r>    -4.9321     1.1258     1.4063 </r>
       <r>    -4.8719     2.2735     1.5431 </r>
       <r>    -4.8117     2.3999     1.6877 </r>
       <r>    -4.7515    -0.0057     1.6875 </r>
       <r>    -4.6913     3.3538     1.8894 </r>
       <r>    -4.6311     2.5043     2.0402 </r>
       <r>    -4.5709     2.0875     2.1659 </r>
       <r>    -4.5107     1.7449     2.2710 </r>
       <r>    -4.4505     2.7783     2.4383 </r>
       <r>    -4.3903     2.4812     2.5877 </r>
       <r>    -4.3301     1.9778     2.7069 </r>
       <r>    -4.2699     0.3926     2.7305 </r>
       <r>    -4.2097     1.4793     2.8196 </r>
       <r>    -4.1495     4.3358     3.0806 </r>
       <r>    -4.0893     4.5031     3.3518 </r>
       <r>    -4.0291     3.4291     3.5584 </r>
       <r>    -3.9689     3.3005     3.7572 </r>
       <r>    -3.9087     2.5737     3.9122 </r>
       <r>    -3.8485     2.2673     4.0488 </r>
       <r>    -3.7883     3.2110     4.2421 </r>
       <r>    -3.7281     3.3181     4.4419 </r>
       <r>    -3.6679     3.9845     4.6818 </r>
       <r>    -3.6077     3.7539     4.9080 </r>
       <r>    -3.5475     4.4059     5.1733 </r>
       <r>    -3.4874     0.2588     5.1889 </r>
       <r>    -3.4272     2.7743     5.3559 </r>
       <r>    -3.3670     2.2668     5.4924 </r>
       <r>    -3.3068     3.2169     5.6860 </r>
       <r>    -3.2466     4.5769     5.9616 </r>
       <r>    -3.1864     5.2083     6.2752 </r>
       <r>    -3.1262     2.9608     6.4536 </r>
       <r>    -3.0660     1.7317     6.5578 </r>
       <r>    -3.0058     2.3079     6.6968 </r>
       <r>    -2.9456     1.7502     6.8022 </r>
       <r>    -2.8854     0.7068     6.8447 </r>
       <r>    -2.8252     1.0816     6.9098 </r>
       <r>    -2.7650     1.3829     6.9931 </r>
       <r>    -2.7048     1.5649     7.0873 </r>
       <r>    -2.6446     1.9341     7.2038 </r>
       <r>    -2.5844     2.5800     7.3592 </r>
       <r>    -2.5242     3.3916     7.5635 </r>
       <r>    -2.4640     3.0922     7.7498 </r>
       <r>    -2.4038     1.7960     7.8580 </r>
       <r>    -2.3436     1.5503     7.9514 </r>
       <r>    -2.2834     0.8077     8.0000 </r>
       <r>    -2.2232    -0.0004     8.0000 </r>
       <r>    -2.1630     0.0000     8.0000 </r>
       <r>    -2.1028     0.0000     8.0000 </r>
       <r>    -2.0427     0.0000     8.0000 </r>
       <r>    -1.9825     0.0000     8.0000 </r>
       <r>    -1.9223     0.0000     8.0000 </r>
       <r>    -1.8621     0.0000     8.0000 </r>
       <r>    -1.8019     0.0010     8.0001 </r>
       <r>    -1.7417     0.5262     8.0317 </r>
       <r>    -1.6815     1.6367     8.1303 </r>
       <r>    -1.6213     3.0632     8.3147 </r>
       <r>    -1.5611     3.3759     8.5179 </r>
       <r>    -1.5009     2.9943     8.6982 </r>
       <r>    -1.4407     2.4132     8.8435 </r>
       <r>    -1.3805     1.5689     8.9380 </r>
       <r>    -1.3203     1.6919     9.0399 </r>
       <r>    -1.2601     1.7408     9.1447 </r>
       <r>    -1.1999     4.2422     9.4001 </r>
       <r>    -1.1397     3.2609     9.5965 </r>
       <r>    -1.0795     2.9782     9.7758 </r>
       <r>    -1.0193     3.9619    10.0143 </r>
       <r>    -0.9591     7.5887    10.4712 </r>
       <r>    -0.8989     4.6238    10.7497 </r>
       <r>    -0.8387     4.5176    11.0218 </r>
       <r>    -0.7785     2.9387    11.1989 </r>
       <r>    -0.7183     4.3548    11.4611 </r>
       <r>    -0.6582     2.5763    11.6163 </r>
       <r>    -0.5980     3.7920    11.8446 </r>
       <r>    -0.5378     2.5737    11.9996 </r>
       <r>    -0.4776     3.1784    12.1910 </r>
       <r>    -0.4174     1.5214    12.2827 </r>
       <r>    -0.3572     1.9058    12.3974 </r>
       <r>    -0.2970     2.9182    12.5732 </r>
       <r>    -0.2368     1.3835    12.6565 </r>
       <r>    -0.1766     0.3892    12.6800 </r>
       <r>    -0.1164     1.6590    12.7798 </r>
       <r>    -0.0562     0.6550    12.8193 </r>
       <r>     0.0040     2.7185    12.9830 </r>
       <r>     0.0642     2.9855    13.1628 </r>
       <r>     0.1244     1.1133    13.2299 </r>
       <r>     0.1846     2.3442    13.3711 </r>
       <r>     0.2448     3.4682    13.5799 </r>
       <r>     0.3050     0.8860    13.6333 </r>
       <r>     0.3652     0.7696    13.6796 </r>
       <r>     0.4254     0.7925    13.7274 </r>
       <r>     0.4856     0.8941    13.7812 </r>
       <r>     0.5458     0.5352    13.8135 </r>
       <r>     0.6060     1.9722    13.9322 </r>
       <r>     0.6662     2.8274    14.1024 </r>
       <r>     0.7264     0.8078    14.1511 </r>
       <r>     0.7865     2.1336    14.2796 </r>
       <r>     0.8467     1.0641    14.3437 </r>
       <r>     0.9069     0.0000    14.3438 </r>
       <r>     0.9671     0.0830    14.3487 </r>
       <r>     1.0273     0.5723    14.3832 </r>
       <r>     1.0875     0.6462    14.4221 </r>
       <r>     1.1477     1.1692    14.4925 </r>
       <r>     1.2079     0.8755    14.5453 </r>
       <r>     1.2681     1.3224    14.6249 </r>
       <r>     1.3283     2.0368    14.7475 </r>
       <r>     1.3885     1.8645    14.8598 </r>
       <r>     1.4487     4.9257    15.1563 </r>
       <r>     1.5089     5.9736    15.5162 </r>
       <r>     1.5691     2.3606    15.6583 </r>
       <r>     1.6293     2.6037    15.8151 </r>
       <r>     1.6895     3.7642    16.0418 </r>
       <r>     1.7497     4.7361    16.3270 </r>
       <r>     1.8099     5.1529    16.6372 </r>
       <r>     1.8701     4.5270    16.9099 </r>
       <r>     1.9303     4.8035    17.1991 </r>
       <r>     1.9905     4.2345    17.4541 </r>
       <r>     2.0507     4.4665    17.7231 </r>
       <r>     2.1109     3.8587    17.9555 </r>
       <r>     2.1711     3.9346    18.1924 </r>
       <r>     2.2312     4.8083    18.4819 </r>
       <r>     2.2914     5.4164    18.8080 </r>
       <r>     2.3516     2.9032    18.9830 </r>
       <r>     2.4118     3.8409    19.2142 </r>
       <r>     2.4720     3.9229    19.4505 </r>
       <r>     2.5322     4.0410    19.6938 </r>
       <r>     2.5924     4.8228    19.9842 </r>
       <r>     2.6526     5.4541    20.3126 </r>
       <r>     2.7128     5.6937    20.6555 </r>
       <r>     2.7730     7.4005    21.1011 </r>
       <r>     2.8332     6.5519    21.4958 </r>
       <r>     2.8934     5.2999    21.8151 </r>
       <r>     2.9536     3.7540    22.0412 </r>
       <r>     3.0138     5.2256    22.3559 </r>
       <r>     3.0740     6.5549    22.7506 </r>
       <r>     3.1342     7.5417    23.2048 </r>
       <r>     3.1944     6.5934    23.6019 </r>
       <r>     3.2546     5.1614    23.9127 </r>
       <r>     3.3148     5.1111    24.2205 </r>
       <r>     3.3750     3.2291    24.4149 </r>
       <r>     3.4352     5.6211    24.7533 </r>
       <r>     3.4954     5.2458    25.0692 </r>
       <r>     3.5556     7.2711    25.5070 </r>
       <r>     3.6158     9.1500    26.0579 </r>
       <r>     3.6759     6.8437    26.4702 </r>
       <r>     3.7361     2.8039    26.6391 </r>
       <r>     3.7963     5.1862    26.9514 </r>
       <r>     3.8565     2.8226    27.1214 </r>
       <r>     3.9167     2.3503    27.2629 </r>
       <r>     3.9769     5.1723    27.5744 </r>
       <r>     4.0371     5.1883    27.8869 </r>
       <r>     4.0973     6.4245    28.2737 </r>
       <r>     4.1575     5.8329    28.6249 </r>
       <r>     4.2177     5.4596    28.9537 </r>
       <r>     4.2779     5.6176    29.2920 </r>
       <r>     4.3381     4.1334    29.5408 </r>
       <r>     4.3983     2.0072    29.6618 </r>
       <r>     4.4585     4.1064    29.9090 </r>
       <r>     4.5187     3.0446    30.0924 </r>
       <r>     4.5789     3.2887    30.2904 </r>
       <r>     4.6391     4.9311    30.5872 </r>
       <r>     4.6993     3.3926    30.7916 </r>
       <r>     4.7595     2.3678    30.9342 </r>
       <r>     4.8197     2.7700    31.1009 </r>
       <r>     4.8799     1.4353    31.1874 </r>
       <r>     4.9401     1.0801    31.2525 </r>
       <r>     5.0003     1.5200    31.3441 </r>
       <r>     5.0604     2.0623    31.4683 </r>
       <r>     5.1206     1.8694    31.5809 </r>
       <r>     5.1808     1.3374    31.6614 </r>
       <r>     5.2410     1.6070    31.7582 </r>
       <r>     5.3012     0.7890    31.8057 </r>
       <r>     5.3614     0.3651    31.8277 </r>
       <r>     5.4216     0.4923    31.8574 </r>
       <r>     5.4818     1.3306    31.9375 </r>
       <r>     5.5420     0.2600    31.9531 </r>
       <r>     5.6022    -0.0043    31.9529 </r>
       <r>     5.6624     0.5260    31.9845 </r>
       <r>     5.7226    -0.0036    31.9843 </r>
       <r>     5.7828     0.2606    32.0000 </r>
       <r>     5.8430     0.0000    32.0000 </r>
       <r>     5.9032     0.0000    32.0000 </r>
       <r>     5.9634     0.0000    32.0000 </r>
       <r>     6.0236     0.0000    32.0000 </r>
       <r>     6.0838     0.0000    32.0000 </r>
       <r>     6.1440     0.0000    32.0000 </r>
       <r>     6.2042     0.0000    32.0000 </r>
       <r>     6.2644     0.2624    32.0158 </r>
       <r>     6.3246     0.3894    32.0393 </r>
       <r>     6.3848     1.4112    32.1242 </r>
       <r>     6.4450     0.7916    32.1720 </r>
       <r>     6.5051     1.1595    32.2418 </r>
       <r>     6.5653     0.9150    32.2969 </r>
       <r>     6.6255     0.4842    32.3260 </r>
       <r>     6.6857     1.4458    32.4131 </r>
       <r>     6.7459     1.0492    32.4763 </r>
       <r>     6.8061     4.2452    32.7318 </r>
       <r>     6.8663     2.0031    32.8525 </r>
       <r>     6.9265     1.8448    32.9636 </r>
       <r>     6.9867     1.0620    33.0276 </r>
       <r>     7.0469     1.9857    33.1472 </r>
       <r>     7.1071     4.5857    33.4232 </r>
       <r>     7.1673     4.6363    33.7025 </r>
       <r>     7.2275     2.1529    33.8322 </r>
       <r>     7.2877     1.8374    33.9429 </r>
       <r>     7.3479     3.1366    34.1318 </r>
       <r>     7.4081     3.5161    34.3435 </r>
       <r>     7.4683     4.1918    34.5959 </r>
       <r>     7.5285     4.0995    34.8429 </r>
       <r>     7.5887     4.4281    35.1095 </r>
       <r>     7.6489     2.9201    35.2854 </r>
       <r>     7.7091     6.1908    35.6582 </r>
       <r>     7.7693     9.8751    36.2528 </r>
       <r>     7.8295     7.1366    36.6825 </r>
       <r>     7.8897     7.4949    37.1339 </r>
       <r>     7.9498     5.2687    37.4513 </r>
       <r>     8.0100     4.6220    37.7297 </r>
       <r>     8.0702     6.0195    38.0922 </r>
       <r>     8.1304     4.2746    38.3496 </r>
       <r>     8.1906     4.5702    38.6248 </r>
       <r>     8.2508     5.8507    38.9771 </r>
       <r>     8.3110     6.3966    39.3623 </r>
       <r>     8.3712     5.1036    39.6697 </r>
       <r>     8.4314     4.1437    39.9192 </r>
       <r>     8.4916     3.4230    40.1253 </r>
       <r>     8.5518     3.2690    40.3223 </r>
       <r>     8.6120     5.0865    40.6285 </r>
       <r>     8.6722     3.7211    40.8526 </r>
       <r>     8.7324     3.5551    41.0667 </r>
       <r>     8.7926     5.6713    41.4082 </r>
       <r>     8.8528     8.7211    41.9332 </r>
       <r>     8.9130     8.7426    42.4597 </r>
       <r>     8.9732     9.8029    43.0501 </r>
       <r>     9.0334     6.2881    43.4288 </r>
       <r>     9.0936     5.7069    43.7725 </r>
       <r>     9.1538     4.0154    44.0144 </r>
       <r>     9.2140     4.7109    44.2981 </r>
       <r>     9.2742     5.5625    44.6331 </r>
       <r>     9.3343     5.7561    44.9798 </r>
       <r>     9.3945     5.9143    45.3360 </r>
       <r>     9.4547     6.5172    45.7285 </r>
       <r>     9.5149     5.2245    46.0432 </r>
       <r>     9.5751     5.2563    46.3597 </r>
       <r>     9.6353     3.2261    46.5540 </r>
       <r>     9.6955     2.7109    46.7173 </r>
       <r>     9.7557     2.6157    46.8748 </r>
       <r>     9.8159     3.2587    47.0711 </r>
       <r>     9.8761     2.8600    47.2433 </r>
       <r>     9.9363     3.8433    47.4747 </r>
       <r>     9.9965     2.5010    47.6253 </r>
       <r>    10.0567     3.5710    47.8403 </r>
       <r>    10.1169     0.9417    47.8971 </r>
       <r>    10.1771     0.9272    47.9529 </r>
       <r>    10.2373     0.5356    47.9851 </r>
       <r>    10.2975     0.2463    48.0000 </r>
       <r>    10.3577     0.0000    48.0000 </r>
       <r>    10.4179     0.0000    48.0000 </r>
       <r>    10.4781     0.0000    48.0000 </r>
       <r>    10.5383     0.0000    48.0000 </r>
       <r>    10.5985     0.0000    48.0000 </r>
       <r>    10.6587     0.0000    48.0000 </r>
       <r>    10.7189     0.0000    48.0000 </r>
       <r>    10.7790     0.0000    48.0000 </r>
       <r>    10.8392     0.0000    48.0000 </r>
       <r>    10.8994     0.0000    48.0000 </r>
       <r>    10.9596     0.0000    48.0000 </r>
       <r>    11.0198     0.0000    48.0000 </r>
       <r>    11.0800     0.0000    48.0000 </r>
      </set>
     </set>
    </array>
   </total>
  </dos>
 </calculation>
 <structure name="finalpos" >
  <crystal>
   <varray name="basis" >
    <v>       5.46906415       0.00000000       0.00000000 </v>
    <v>       0.00000000       5.46906415       0.00000000 </v>
    <v>       0.00000000       0.00000000       5.46906415 </v>
   </varray>
   <i name="volume">    163.58333295 </i>
   <varray name="rec_basis" >
    <v>       0.18284664       0.00000000       0.00000000 </v>
    <v>       0.00000000       0.18284664       0.00000000 </v>
    <v>       0.00000000       0.00000000       0.18284664 </v>
   </varray>
  </crystal>
  <varray name="positions" >
   <v>       0.14899310       0.00163757       0.08970604 </v>
   <v>       0.40450411       0.25698372       0.34119395 </v>
   <v>       0.64247735       0.51585525       0.09245153 </v>
   <v>       0.90020105       0.75301364       0.34023501 </v>
   <v>       0.65976973       0.00697668       0.59885386 </v>
   <v>       0.88639293       0.25803770       0.85083370 </v>
   <v>       0.15742681       0.49697514       0.58497313 </v>
   <v>       0.38290903       0.74750023       0.82957544 </v>
  </varray>
 </structure>
</modeling>
