<?xml version="1.0" encoding="ISO-8859-1"?>
<modeling>
 <generator>
  <i name="program" type="string">vasp </i>
  <i name="version" type="string">5.4.1  </i>
  <i name="subversion" type="string">24Jun15 (build Jul  8 2015 13:29:37) complex                          parallel </i>
  <i name="platform" type="string">FX10FRT </i>
  <i name="date" type="string">2016 02 29 </i>
  <i name="time" type="string">21:46:45 </i>
 </generator>
 <incar>
  <i type="string" name="PREC">accurate</i>
  <i type="string" name="ALGO"> Normal</i>
  <i type="int" name="ISPIN">     1</i>
  <i type="int" name="IBRION">    -1</i>
  <i name="EDIFF">      0.00010000</i>
  <i type="int" name="NSW">     0</i>
  <i type="int" name="ISIF">     2</i>
  <i name="ENCUT">    400.00000000</i>
  <i type="int" name="ISMEAR">     2</i>
  <i name="SIGMA">      0.01000000</i>
  <i type="int" name="NWRITE">     1</i>
  <v type="int" name="KPOINT_BSE">    -1     0     0     0</v>
 </incar>
 <kpoints>
  <generation param="Monkhorst-Pack">
   <v type="int" name="divisions">       8        8        8 </v>
   <v name="usershift">      0.00000000       0.00000000       0.00000000 </v>
   <v name="genvec1">      0.12500000       0.00000000       0.00000000 </v>
   <v name="genvec2">      0.00000000       0.12500000       0.00000000 </v>
   <v name="genvec3">      0.00000000       0.00000000       0.12500000 </v>
   <v name="shift">      0.50000000       0.50000000       0.50000000 </v>
  </generation>
  <varray name="kpointlist" >
   <v>       0.06250000       0.06250000       0.06250000 </v>
   <v>       0.18750000       0.06250000       0.06250000 </v>
   <v>       0.31250000       0.06250000       0.06250000 </v>
   <v>       0.43750000       0.06250000       0.06250000 </v>
   <v>      -0.43750000       0.06250000       0.06250000 </v>
   <v>      -0.31250000       0.06250000       0.06250000 </v>
   <v>      -0.18750000       0.06250000       0.06250000 </v>
   <v>      -0.06250000       0.06250000       0.06250000 </v>
   <v>       0.06250000       0.18750000       0.06250000 </v>
   <v>       0.18750000       0.18750000       0.06250000 </v>
   <v>       0.31250000       0.18750000       0.06250000 </v>
   <v>       0.43750000       0.18750000       0.06250000 </v>
   <v>      -0.43750000       0.18750000       0.06250000 </v>
   <v>      -0.31250000       0.18750000       0.06250000 </v>
   <v>      -0.18750000       0.18750000       0.06250000 </v>
   <v>      -0.06250000       0.18750000       0.06250000 </v>
   <v>       0.06250000       0.31250000       0.06250000 </v>
   <v>       0.18750000       0.31250000       0.06250000 </v>
   <v>       0.31250000       0.31250000       0.06250000 </v>
   <v>       0.43750000       0.31250000       0.06250000 </v>
   <v>      -0.43750000       0.31250000       0.06250000 </v>
   <v>      -0.31250000       0.31250000       0.06250000 </v>
   <v>      -0.18750000       0.31250000       0.06250000 </v>
   <v>      -0.06250000       0.31250000       0.06250000 </v>
   <v>       0.06250000       0.43750000       0.06250000 </v>
   <v>       0.18750000       0.43750000       0.06250000 </v>
   <v>       0.31250000       0.43750000       0.06250000 </v>
   <v>       0.43750000       0.43750000       0.06250000 </v>
   <v>      -0.43750000       0.43750000       0.06250000 </v>
   <v>      -0.31250000       0.43750000       0.06250000 </v>
   <v>      -0.18750000       0.43750000       0.06250000 </v>
   <v>      -0.06250000       0.43750000       0.06250000 </v>
   <v>       0.06250000      -0.43750000       0.06250000 </v>
   <v>       0.18750000      -0.43750000       0.06250000 </v>
   <v>       0.31250000      -0.43750000       0.06250000 </v>
   <v>       0.43750000      -0.43750000       0.06250000 </v>
   <v>      -0.43750000      -0.43750000       0.06250000 </v>
   <v>      -0.31250000      -0.43750000       0.06250000 </v>
   <v>      -0.18750000      -0.43750000       0.06250000 </v>
   <v>      -0.06250000      -0.43750000       0.06250000 </v>
   <v>       0.06250000      -0.31250000       0.06250000 </v>
   <v>       0.18750000      -0.31250000       0.06250000 </v>
   <v>       0.31250000      -0.31250000       0.06250000 </v>
   <v>       0.43750000      -0.31250000       0.06250000 </v>
   <v>      -0.43750000      -0.31250000       0.06250000 </v>
   <v>      -0.31250000      -0.31250000       0.06250000 </v>
   <v>      -0.18750000      -0.31250000       0.06250000 </v>
   <v>      -0.06250000      -0.31250000       0.06250000 </v>
   <v>       0.06250000      -0.18750000       0.06250000 </v>
   <v>       0.18750000      -0.18750000       0.06250000 </v>
   <v>       0.31250000      -0.18750000       0.06250000 </v>
   <v>       0.43750000      -0.18750000       0.06250000 </v>
   <v>      -0.43750000      -0.18750000       0.06250000 </v>
   <v>      -0.31250000      -0.18750000       0.06250000 </v>
   <v>      -0.18750000      -0.18750000       0.06250000 </v>
   <v>      -0.06250000      -0.18750000       0.06250000 </v>
   <v>       0.06250000      -0.06250000       0.06250000 </v>
   <v>       0.18750000      -0.06250000       0.06250000 </v>
   <v>       0.31250000      -0.06250000       0.06250000 </v>
   <v>       0.43750000      -0.06250000       0.06250000 </v>
   <v>      -0.43750000      -0.06250000       0.06250000 </v>
   <v>      -0.31250000      -0.06250000       0.06250000 </v>
   <v>      -0.18750000      -0.06250000       0.06250000 </v>
   <v>      -0.06250000      -0.06250000       0.06250000 </v>
   <v>       0.06250000       0.06250000       0.18750000 </v>
   <v>       0.18750000       0.06250000       0.18750000 </v>
   <v>       0.31250000       0.06250000       0.18750000 </v>
   <v>       0.43750000       0.06250000       0.18750000 </v>
   <v>      -0.43750000       0.06250000       0.18750000 </v>
   <v>      -0.31250000       0.06250000       0.18750000 </v>
   <v>      -0.18750000       0.06250000       0.18750000 </v>
   <v>      -0.06250000       0.06250000       0.18750000 </v>
   <v>       0.06250000       0.18750000       0.18750000 </v>
   <v>       0.18750000       0.18750000       0.18750000 </v>
   <v>       0.31250000       0.18750000       0.18750000 </v>
   <v>       0.43750000       0.18750000       0.18750000 </v>
   <v>      -0.43750000       0.18750000       0.18750000 </v>
   <v>      -0.31250000       0.18750000       0.18750000 </v>
   <v>      -0.18750000       0.18750000       0.18750000 </v>
   <v>      -0.06250000       0.18750000       0.18750000 </v>
   <v>       0.06250000       0.31250000       0.18750000 </v>
   <v>       0.18750000       0.31250000       0.18750000 </v>
   <v>       0.31250000       0.31250000       0.18750000 </v>
   <v>       0.43750000       0.31250000       0.18750000 </v>
   <v>      -0.43750000       0.31250000       0.18750000 </v>
   <v>      -0.31250000       0.31250000       0.18750000 </v>
   <v>      -0.18750000       0.31250000       0.18750000 </v>
   <v>      -0.06250000       0.31250000       0.18750000 </v>
   <v>       0.06250000       0.43750000       0.18750000 </v>
   <v>       0.18750000       0.43750000       0.18750000 </v>
   <v>       0.31250000       0.43750000       0.18750000 </v>
   <v>       0.43750000       0.43750000       0.18750000 </v>
   <v>      -0.43750000       0.43750000       0.18750000 </v>
   <v>      -0.31250000       0.43750000       0.18750000 </v>
   <v>      -0.18750000       0.43750000       0.18750000 </v>
   <v>      -0.06250000       0.43750000       0.18750000 </v>
   <v>       0.06250000      -0.43750000       0.18750000 </v>
   <v>       0.18750000      -0.43750000       0.18750000 </v>
   <v>       0.31250000      -0.43750000       0.18750000 </v>
   <v>       0.43750000      -0.43750000       0.18750000 </v>
   <v>      -0.43750000      -0.43750000       0.18750000 </v>
   <v>      -0.31250000      -0.43750000       0.18750000 </v>
   <v>      -0.18750000      -0.43750000       0.18750000 </v>
   <v>      -0.06250000      -0.43750000       0.18750000 </v>
   <v>       0.06250000      -0.31250000       0.18750000 </v>
   <v>       0.18750000      -0.31250000       0.18750000 </v>
   <v>       0.31250000      -0.31250000       0.18750000 </v>
   <v>       0.43750000      -0.31250000       0.18750000 </v>
   <v>      -0.43750000      -0.31250000       0.18750000 </v>
   <v>      -0.31250000      -0.31250000       0.18750000 </v>
   <v>      -0.18750000      -0.31250000       0.18750000 </v>
   <v>      -0.06250000      -0.31250000       0.18750000 </v>
   <v>       0.06250000      -0.18750000       0.18750000 </v>
   <v>       0.18750000      -0.18750000       0.18750000 </v>
   <v>       0.31250000      -0.18750000       0.18750000 </v>
   <v>       0.43750000      -0.18750000       0.18750000 </v>
   <v>      -0.43750000      -0.18750000       0.18750000 </v>
   <v>      -0.31250000      -0.18750000       0.18750000 </v>
   <v>      -0.18750000      -0.18750000       0.18750000 </v>
   <v>      -0.06250000      -0.18750000       0.18750000 </v>
   <v>       0.06250000      -0.06250000       0.18750000 </v>
   <v>       0.18750000      -0.06250000       0.18750000 </v>
   <v>       0.31250000      -0.06250000       0.18750000 </v>
   <v>       0.43750000      -0.06250000       0.18750000 </v>
   <v>      -0.43750000      -0.06250000       0.18750000 </v>
   <v>      -0.31250000      -0.06250000       0.18750000 </v>
   <v>      -0.18750000      -0.06250000       0.18750000 </v>
   <v>      -0.06250000      -0.06250000       0.18750000 </v>
   <v>       0.06250000       0.06250000       0.31250000 </v>
   <v>       0.18750000       0.06250000       0.31250000 </v>
   <v>       0.31250000       0.06250000       0.31250000 </v>
   <v>       0.43750000       0.06250000       0.31250000 </v>
   <v>      -0.43750000       0.06250000       0.31250000 </v>
   <v>      -0.31250000       0.06250000       0.31250000 </v>
   <v>      -0.18750000       0.06250000       0.31250000 </v>
   <v>      -0.06250000       0.06250000       0.31250000 </v>
   <v>       0.06250000       0.18750000       0.31250000 </v>
   <v>       0.18750000       0.18750000       0.31250000 </v>
   <v>       0.31250000       0.18750000       0.31250000 </v>
   <v>       0.43750000       0.18750000       0.31250000 </v>
   <v>      -0.43750000       0.18750000       0.31250000 </v>
   <v>      -0.31250000       0.18750000       0.31250000 </v>
   <v>      -0.18750000       0.18750000       0.31250000 </v>
   <v>      -0.06250000       0.18750000       0.31250000 </v>
   <v>       0.06250000       0.31250000       0.31250000 </v>
   <v>       0.18750000       0.31250000       0.31250000 </v>
   <v>       0.31250000       0.31250000       0.31250000 </v>
   <v>       0.43750000       0.31250000       0.31250000 </v>
   <v>      -0.43750000       0.31250000       0.31250000 </v>
   <v>      -0.31250000       0.31250000       0.31250000 </v>
   <v>      -0.18750000       0.31250000       0.31250000 </v>
   <v>      -0.06250000       0.31250000       0.31250000 </v>
   <v>       0.06250000       0.43750000       0.31250000 </v>
   <v>       0.18750000       0.43750000       0.31250000 </v>
   <v>       0.31250000       0.43750000       0.31250000 </v>
   <v>       0.43750000       0.43750000       0.31250000 </v>
   <v>      -0.43750000       0.43750000       0.31250000 </v>
   <v>      -0.31250000       0.43750000       0.31250000 </v>
   <v>      -0.18750000       0.43750000       0.31250000 </v>
   <v>      -0.06250000       0.43750000       0.31250000 </v>
   <v>       0.06250000      -0.43750000       0.31250000 </v>
   <v>       0.18750000      -0.43750000       0.31250000 </v>
   <v>       0.31250000      -0.43750000       0.31250000 </v>
   <v>       0.43750000      -0.43750000       0.31250000 </v>
   <v>      -0.43750000      -0.43750000       0.31250000 </v>
   <v>      -0.31250000      -0.43750000       0.31250000 </v>
   <v>      -0.18750000      -0.43750000       0.31250000 </v>
   <v>      -0.06250000      -0.43750000       0.31250000 </v>
   <v>       0.06250000      -0.31250000       0.31250000 </v>
   <v>       0.18750000      -0.31250000       0.31250000 </v>
   <v>       0.31250000      -0.31250000       0.31250000 </v>
   <v>       0.43750000      -0.31250000       0.31250000 </v>
   <v>      -0.43750000      -0.31250000       0.31250000 </v>
   <v>      -0.31250000      -0.31250000       0.31250000 </v>
   <v>      -0.18750000      -0.31250000       0.31250000 </v>
   <v>      -0.06250000      -0.31250000       0.31250000 </v>
   <v>       0.06250000      -0.18750000       0.31250000 </v>
   <v>       0.18750000      -0.18750000       0.31250000 </v>
   <v>       0.31250000      -0.18750000       0.31250000 </v>
   <v>       0.43750000      -0.18750000       0.31250000 </v>
   <v>      -0.43750000      -0.18750000       0.31250000 </v>
   <v>      -0.31250000      -0.18750000       0.31250000 </v>
   <v>      -0.18750000      -0.18750000       0.31250000 </v>
   <v>      -0.06250000      -0.18750000       0.31250000 </v>
   <v>       0.06250000      -0.06250000       0.31250000 </v>
   <v>       0.18750000      -0.06250000       0.31250000 </v>
   <v>       0.31250000      -0.06250000       0.31250000 </v>
   <v>       0.43750000      -0.06250000       0.31250000 </v>
   <v>      -0.43750000      -0.06250000       0.31250000 </v>
   <v>      -0.31250000      -0.06250000       0.31250000 </v>
   <v>      -0.18750000      -0.06250000       0.31250000 </v>
   <v>      -0.06250000      -0.06250000       0.31250000 </v>
   <v>       0.06250000       0.06250000       0.43750000 </v>
   <v>       0.18750000       0.06250000       0.43750000 </v>
   <v>       0.31250000       0.06250000       0.43750000 </v>
   <v>       0.43750000       0.06250000       0.43750000 </v>
   <v>      -0.43750000       0.06250000       0.43750000 </v>
   <v>      -0.31250000       0.06250000       0.43750000 </v>
   <v>      -0.18750000       0.06250000       0.43750000 </v>
   <v>      -0.06250000       0.06250000       0.43750000 </v>
   <v>       0.06250000       0.18750000       0.43750000 </v>
   <v>       0.18750000       0.18750000       0.43750000 </v>
   <v>       0.31250000       0.18750000       0.43750000 </v>
   <v>       0.43750000       0.18750000       0.43750000 </v>
   <v>      -0.43750000       0.18750000       0.43750000 </v>
   <v>      -0.31250000       0.18750000       0.43750000 </v>
   <v>      -0.18750000       0.18750000       0.43750000 </v>
   <v>      -0.06250000       0.18750000       0.43750000 </v>
   <v>       0.06250000       0.31250000       0.43750000 </v>
   <v>       0.18750000       0.31250000       0.43750000 </v>
   <v>       0.31250000       0.31250000       0.43750000 </v>
   <v>       0.43750000       0.31250000       0.43750000 </v>
   <v>      -0.43750000       0.31250000       0.43750000 </v>
   <v>      -0.31250000       0.31250000       0.43750000 </v>
   <v>      -0.18750000       0.31250000       0.43750000 </v>
   <v>      -0.06250000       0.31250000       0.43750000 </v>
   <v>       0.06250000       0.43750000       0.43750000 </v>
   <v>       0.18750000       0.43750000       0.43750000 </v>
   <v>       0.31250000       0.43750000       0.43750000 </v>
   <v>       0.43750000       0.43750000       0.43750000 </v>
   <v>      -0.43750000       0.43750000       0.43750000 </v>
   <v>      -0.31250000       0.43750000       0.43750000 </v>
   <v>      -0.18750000       0.43750000       0.43750000 </v>
   <v>      -0.06250000       0.43750000       0.43750000 </v>
   <v>       0.06250000      -0.43750000       0.43750000 </v>
   <v>       0.18750000      -0.43750000       0.43750000 </v>
   <v>       0.31250000      -0.43750000       0.43750000 </v>
   <v>       0.43750000      -0.43750000       0.43750000 </v>
   <v>      -0.43750000      -0.43750000       0.43750000 </v>
   <v>      -0.31250000      -0.43750000       0.43750000 </v>
   <v>      -0.18750000      -0.43750000       0.43750000 </v>
   <v>      -0.06250000      -0.43750000       0.43750000 </v>
   <v>       0.06250000      -0.31250000       0.43750000 </v>
   <v>       0.18750000      -0.31250000       0.43750000 </v>
   <v>       0.31250000      -0.31250000       0.43750000 </v>
   <v>       0.43750000      -0.31250000       0.43750000 </v>
   <v>      -0.43750000      -0.31250000       0.43750000 </v>
   <v>      -0.31250000      -0.31250000       0.43750000 </v>
   <v>      -0.18750000      -0.31250000       0.43750000 </v>
   <v>      -0.06250000      -0.31250000       0.43750000 </v>
   <v>       0.06250000      -0.18750000       0.43750000 </v>
   <v>       0.18750000      -0.18750000       0.43750000 </v>
   <v>       0.31250000      -0.18750000       0.43750000 </v>
   <v>       0.43750000      -0.18750000       0.43750000 </v>
   <v>      -0.43750000      -0.18750000       0.43750000 </v>
   <v>      -0.31250000      -0.18750000       0.43750000 </v>
   <v>      -0.18750000      -0.18750000       0.43750000 </v>
   <v>      -0.06250000      -0.18750000       0.43750000 </v>
   <v>       0.06250000      -0.06250000       0.43750000 </v>
   <v>       0.18750000      -0.06250000       0.43750000 </v>
   <v>       0.31250000      -0.06250000       0.43750000 </v>
   <v>       0.43750000      -0.06250000       0.43750000 </v>
   <v>      -0.43750000      -0.06250000       0.43750000 </v>
   <v>      -0.31250000      -0.06250000       0.43750000 </v>
   <v>      -0.18750000      -0.06250000       0.43750000 </v>
   <v>      -0.06250000      -0.06250000       0.43750000 </v>
  </varray>
  <varray name="weights" >
   <v>       0.00390625 </v>
   <v>       0.00390625 </v>
   <v>       0.00390625 </v>
   <v>       0.00390625 </v>
   <v>       0.00390625 </v>
   <v>       0.00390625 </v>
   <v>       0.00390625 </v>
   <v>       0.00390625 </v>
   <v>       0.00390625 </v>
   <v>       0.00390625 </v>
   <v>       0.00390625 </v>
   <v>       0.00390625 </v>
   <v>       0.00390625 </v>
   <v>       0.00390625 </v>
   <v>       0.00390625 </v>
   <v>       0.00390625 </v>
   <v>       0.00390625 </v>
   <v>       0.00390625 </v>
   <v>       0.00390625 </v>
   <v>       0.00390625 </v>
   <v>       0.00390625 </v>
   <v>       0.00390625 </v>
   <v>       0.00390625 </v>
   <v>       0.00390625 </v>
   <v>       0.00390625 </v>
   <v>       0.00390625 </v>
   <v>       0.00390625 </v>
   <v>       0.00390625 </v>
   <v>       0.00390625 </v>
   <v>       0.00390625 </v>
   <v>       0.00390625 </v>
   <v>       0.00390625 </v>
   <v>       0.00390625 </v>
   <v>       0.00390625 </v>
   <v>       0.00390625 </v>
   <v>       0.00390625 </v>
   <v>       0.00390625 </v>
   <v>       0.00390625 </v>
   <v>       0.00390625 </v>
   <v>       0.00390625 </v>
   <v>       0.00390625 </v>
   <v>       0.00390625 </v>
   <v>       0.00390625 </v>
   <v>       0.00390625 </v>
   <v>       0.00390625 </v>
   <v>       0.00390625 </v>
   <v>       0.00390625 </v>
   <v>       0.00390625 </v>
   <v>       0.00390625 </v>
   <v>       0.00390625 </v>
   <v>       0.00390625 </v>
   <v>       0.00390625 </v>
   <v>       0.00390625 </v>
   <v>       0.00390625 </v>
   <v>       0.00390625 </v>
   <v>       0.00390625 </v>
   <v>       0.00390625 </v>
   <v>       0.00390625 </v>
   <v>       0.00390625 </v>
   <v>       0.00390625 </v>
   <v>       0.00390625 </v>
   <v>       0.00390625 </v>
   <v>       0.00390625 </v>
   <v>       0.00390625 </v>
   <v>       0.00390625 </v>
   <v>       0.00390625 </v>
   <v>       0.00390625 </v>
   <v>       0.00390625 </v>
   <v>       0.00390625 </v>
   <v>       0.00390625 </v>
   <v>       0.00390625 </v>
   <v>       0.00390625 </v>
   <v>       0.00390625 </v>
   <v>       0.00390625 </v>
   <v>       0.00390625 </v>
   <v>       0.00390625 </v>
   <v>       0.00390625 </v>
   <v>       0.00390625 </v>
   <v>       0.00390625 </v>
   <v>       0.00390625 </v>
   <v>       0.00390625 </v>
   <v>       0.00390625 </v>
   <v>       0.00390625 </v>
   <v>       0.00390625 </v>
   <v>       0.00390625 </v>
   <v>       0.00390625 </v>
   <v>       0.00390625 </v>
   <v>       0.00390625 </v>
   <v>       0.00390625 </v>
   <v>       0.00390625 </v>
   <v>       0.00390625 </v>
   <v>       0.00390625 </v>
   <v>       0.00390625 </v>
   <v>       0.00390625 </v>
   <v>       0.00390625 </v>
   <v>       0.00390625 </v>
   <v>       0.00390625 </v>
   <v>       0.00390625 </v>
   <v>       0.00390625 </v>
   <v>       0.00390625 </v>
   <v>       0.00390625 </v>
   <v>       0.00390625 </v>
   <v>       0.00390625 </v>
   <v>       0.00390625 </v>
   <v>       0.00390625 </v>
   <v>       0.00390625 </v>
   <v>       0.00390625 </v>
   <v>       0.00390625 </v>
   <v>       0.00390625 </v>
   <v>       0.00390625 </v>
   <v>       0.00390625 </v>
   <v>       0.00390625 </v>
   <v>       0.00390625 </v>
   <v>       0.00390625 </v>
   <v>       0.00390625 </v>
   <v>       0.00390625 </v>
   <v>       0.00390625 </v>
   <v>       0.00390625 </v>
   <v>       0.00390625 </v>
   <v>       0.00390625 </v>
   <v>       0.00390625 </v>
   <v>       0.00390625 </v>
   <v>       0.00390625 </v>
   <v>       0.00390625 </v>
   <v>       0.00390625 </v>
   <v>       0.00390625 </v>
   <v>       0.00390625 </v>
   <v>       0.00390625 </v>
   <v>       0.00390625 </v>
   <v>       0.00390625 </v>
   <v>       0.00390625 </v>
   <v>       0.00390625 </v>
   <v>       0.00390625 </v>
   <v>       0.00390625 </v>
   <v>       0.00390625 </v>
   <v>       0.00390625 </v>
   <v>       0.00390625 </v>
   <v>       0.00390625 </v>
   <v>       0.00390625 </v>
   <v>       0.00390625 </v>
   <v>       0.00390625 </v>
   <v>       0.00390625 </v>
   <v>       0.00390625 </v>
   <v>       0.00390625 </v>
   <v>       0.00390625 </v>
   <v>       0.00390625 </v>
   <v>       0.00390625 </v>
   <v>       0.00390625 </v>
   <v>       0.00390625 </v>
   <v>       0.00390625 </v>
   <v>       0.00390625 </v>
   <v>       0.00390625 </v>
   <v>       0.00390625 </v>
   <v>       0.00390625 </v>
   <v>       0.00390625 </v>
   <v>       0.00390625 </v>
   <v>       0.00390625 </v>
   <v>       0.00390625 </v>
   <v>       0.00390625 </v>
   <v>       0.00390625 </v>
   <v>       0.00390625 </v>
   <v>       0.00390625 </v>
   <v>       0.00390625 </v>
   <v>       0.00390625 </v>
   <v>       0.00390625 </v>
   <v>       0.00390625 </v>
   <v>       0.00390625 </v>
   <v>       0.00390625 </v>
   <v>       0.00390625 </v>
   <v>       0.00390625 </v>
   <v>       0.00390625 </v>
   <v>       0.00390625 </v>
   <v>       0.00390625 </v>
   <v>       0.00390625 </v>
   <v>       0.00390625 </v>
   <v>       0.00390625 </v>
   <v>       0.00390625 </v>
   <v>       0.00390625 </v>
   <v>       0.00390625 </v>
   <v>       0.00390625 </v>
   <v>       0.00390625 </v>
   <v>       0.00390625 </v>
   <v>       0.00390625 </v>
   <v>       0.00390625 </v>
   <v>       0.00390625 </v>
   <v>       0.00390625 </v>
   <v>       0.00390625 </v>
   <v>       0.00390625 </v>
   <v>       0.00390625 </v>
   <v>       0.00390625 </v>
   <v>       0.00390625 </v>
   <v>       0.00390625 </v>
   <v>       0.00390625 </v>
   <v>       0.00390625 </v>
   <v>       0.00390625 </v>
   <v>       0.00390625 </v>
   <v>       0.00390625 </v>
   <v>       0.00390625 </v>
   <v>       0.00390625 </v>
   <v>       0.00390625 </v>
   <v>       0.00390625 </v>
   <v>       0.00390625 </v>
   <v>       0.00390625 </v>
   <v>       0.00390625 </v>
   <v>       0.00390625 </v>
   <v>       0.00390625 </v>
   <v>       0.00390625 </v>
   <v>       0.00390625 </v>
   <v>       0.00390625 </v>
   <v>       0.00390625 </v>
   <v>       0.00390625 </v>
   <v>       0.00390625 </v>
   <v>       0.00390625 </v>
   <v>       0.00390625 </v>
   <v>       0.00390625 </v>
   <v>       0.00390625 </v>
   <v>       0.00390625 </v>
   <v>       0.00390625 </v>
   <v>       0.00390625 </v>
   <v>       0.00390625 </v>
   <v>       0.00390625 </v>
   <v>       0.00390625 </v>
   <v>       0.00390625 </v>
   <v>       0.00390625 </v>
   <v>       0.00390625 </v>
   <v>       0.00390625 </v>
   <v>       0.00390625 </v>
   <v>       0.00390625 </v>
   <v>       0.00390625 </v>
   <v>       0.00390625 </v>
   <v>       0.00390625 </v>
   <v>       0.00390625 </v>
   <v>       0.00390625 </v>
   <v>       0.00390625 </v>
   <v>       0.00390625 </v>
   <v>       0.00390625 </v>
   <v>       0.00390625 </v>
   <v>       0.00390625 </v>
   <v>       0.00390625 </v>
   <v>       0.00390625 </v>
   <v>       0.00390625 </v>
   <v>       0.00390625 </v>
   <v>       0.00390625 </v>
   <v>       0.00390625 </v>
   <v>       0.00390625 </v>
   <v>       0.00390625 </v>
   <v>       0.00390625 </v>
   <v>       0.00390625 </v>
   <v>       0.00390625 </v>
   <v>       0.00390625 </v>
   <v>       0.00390625 </v>
   <v>       0.00390625 </v>
   <v>       0.00390625 </v>
   <v>       0.00390625 </v>
   <v>       0.00390625 </v>
   <v>       0.00390625 </v>
  </varray>
 </kpoints>
 <parameters>
  <separator name="general" >
   <i type="string" name="SYSTEM">unknown system</i>
   <i type="logical" name="LCOMPAT"> F  </i>
  </separator>
  <separator name="electronic" >
   <i type="string" name="PREC">accura</i>
   <i name="ENMAX">    400.00000000</i>
   <i name="ENAUG">    322.06900000</i>
   <i name="EDIFF">      0.00010000</i>
   <i type="int" name="IALGO">    38</i>
   <i type="int" name="IWAVPR">    10</i>
   <i type="int" name="NBANDS">    24</i>
   <i name="NELECT">     32.00000000</i>
   <i type="int" name="TURBO">     0</i>
   <i type="int" name="IRESTART">     0</i>
   <i type="int" name="NREBOOT">     0</i>
   <i type="int" name="NMIN">     0</i>
   <i name="EREF">      0.00000000</i>
   <separator name="electronic smearing" >
    <i type="int" name="ISMEAR">     2</i>
    <i name="SIGMA">      0.01000000</i>
    <i name="KSPACING">      0.50000000</i>
    <i type="logical" name="KGAMMA"> T  </i>
   </separator>
   <separator name="electronic projectors" >
    <i type="logical" name="LREAL"> F  </i>
    <v name="ROPT">      0.00000000</v>
    <i type="int" name="LMAXPAW">  -100</i>
    <i type="int" name="LMAXMIX">     2</i>
    <i type="logical" name="NLSPLINE"> F  </i>
   </separator>
   <separator name="electronic startup" >
    <i type="int" name="ISTART">     0</i>
    <i type="int" name="ICHARG">     2</i>
    <i type="int" name="INIWAV">     1</i>
   </separator>
   <separator name="electronic spin" >
    <i type="int" name="ISPIN">     1</i>
    <i type="logical" name="LNONCOLLINEAR"> F  </i>
    <v name="MAGMOM">      1.00000000      1.00000000      1.00000000      1.00000000      1.00000000      1.00000000      1.00000000      1.00000000</v>
    <i name="NUPDOWN">     -1.00000000</i>
    <i type="logical" name="LSORBIT"> F  </i>
    <v name="SAXIS">      0.00000000      0.00000000      1.00000000</v>
    <i type="logical" name="LSPIRAL"> F  </i>
    <v name="QSPIRAL">      0.00000000      0.00000000      0.00000000</v>
    <i type="logical" name="LZEROZ"> F  </i>
   </separator>
   <separator name="electronic exchange-correlation" >
    <i type="logical" name="LASPH"> F  </i>
    <i type="logical" name="LMETAGGA"> F  </i>
   </separator>
   <separator name="electronic convergence" >
    <i type="int" name="NELM">    60</i>
    <i type="int" name="NELMDL">    -5</i>
    <i type="int" name="NELMIN">     2</i>
    <i name="ENINI">    400.00000000</i>
    <separator name="electronic convergence detail" >
     <i type="logical" name="LDIAG"> T  </i>
     <i type="logical" name="LSUBROT"> F  </i>
     <i name="WEIMIN">      0.00000000</i>
     <i name="EBREAK">      0.00000104</i>
     <i name="DEPER">      0.30000000</i>
     <i type="int" name="NRMM">     4</i>
     <i name="TIME">      0.40000000</i>
    </separator>
   </separator>
   <separator name="electronic mixer" >
    <i name="AMIX">      0.40000000</i>
    <i name="BMIX">      1.00000000</i>
    <i name="AMIN">      0.10000000</i>
    <i name="AMIX_MAG">      1.60000000</i>
    <i name="BMIX_MAG">      1.00000000</i>
    <separator name="electronic mixer details" >
     <i type="int" name="IMIX">     4</i>
     <i type="logical" name="MIXFIRST"> F  </i>
     <i type="int" name="MAXMIX">   -45</i>
     <i name="WC">    100.00000000</i>
     <i type="int" name="INIMIX">     1</i>
     <i type="int" name="MIXPRE">     1</i>
     <i type="int" name="MREMOVE">     5</i>
    </separator>
   </separator>
   <separator name="electronic dipolcorrection" >
    <i type="logical" name="LDIPOL"> F  </i>
    <i type="logical" name="LMONO"> F  </i>
    <i type="int" name="IDIPOL">     0</i>
    <i name="EPSILON">      1.00000000</i>
    <v name="DIPOL">   -100.00000000   -100.00000000   -100.00000000</v>
    <i name="EFIELD">      0.00000000</i>
   </separator>
  </separator>
  <separator name="grids" >
   <i type="int" name="NGX">    36</i>
   <i type="int" name="NGY">    36</i>
   <i type="int" name="NGZ">    36</i>
   <i type="int" name="NGXF">    72</i>
   <i type="int" name="NGYF">    72</i>
   <i type="int" name="NGZF">    72</i>
   <i type="logical" name="ADDGRID"> F  </i>
  </separator>
  <separator name="ionic" >
   <i type="int" name="NSW">     0</i>
   <i type="int" name="IBRION">    -1</i>
   <i type="int" name="ISIF">     2</i>
   <i name="PSTRESS">      0.00000000</i>
   <i name="EDIFFG">      0.00100000</i>
   <i type="int" name="NFREE">     0</i>
   <i name="POTIM">      0.50000000</i>
   <i name="SMASS">     -3.00000000</i>
   <i name="SCALEE">      1.00000000</i>
  </separator>
  <separator name="ionic md" >
   <i name="TEBEG">      0.00010000</i>
   <i name="TEEND">      0.00010000</i>
   <i type="int" name="NBLOCK">     1</i>
   <i type="int" name="KBLOCK">     1</i>
   <i type="int" name="NPACO">   256</i>
   <i name="APACO">     16.00000000</i>
  </separator>
  <separator name="symmetry" >
   <i type="int" name="ISYM">     2</i>
   <i name="SYMPREC">      0.00001000</i>
  </separator>
  <separator name="dos" >
   <i type="logical" name="LORBIT"> F  </i>
   <v name="RWIGS">     -1.00000000</v>
   <i type="int" name="NEDOS">   301</i>
   <i name="EMIN">     10.00000000</i>
   <i name="EMAX">    -10.00000000</i>
   <i name="EFERMI">      0.00000000</i>
  </separator>
  <separator name="writing" >
   <i type="int" name="NWRITE">     1</i>
   <i type="logical" name="LWAVE"> T  </i>
   <i type="logical" name="LCHARG"> T  </i>
   <i type="logical" name="LPARD"> F  </i>
   <i type="logical" name="LVTOT"> F  </i>
   <i type="logical" name="LVHAR"> F  </i>
   <i type="logical" name="LELF"> F  </i>
   <i type="logical" name="LOPTICS"> F  </i>
   <v name="STM">      0.00000000      0.00000000      0.00000000      0.00000000      0.00000000      0.00000000      0.00000000</v>
  </separator>
  <separator name="performance" >
   <i type="int" name="NPAR">     8</i>
   <i type="int" name="NSIM">     4</i>
   <i type="int" name="NBLK">    -1</i>
   <i type="logical" name="LPLANE"> T  </i>
   <i type="logical" name="LSCALAPACK"> T  </i>
   <i type="logical" name="LSCAAWARE"> F  </i>
   <i type="logical" name="LSCALU"> F  </i>
   <i type="logical" name="LASYNC"> F  </i>
   <i type="logical" name="LORBITALREAL"> F  </i>
  </separator>
  <separator name="miscellaneous" >
   <i type="int" name="IDIOT">     3</i>
   <i type="logical" name="LMUSIC"> F  </i>
   <v name="POMASS">     28.08500000</v>
   <v name="DARWINR">      0.00000000</v>
   <v name="DARWINV">      1.00000000</v>
   <i type="logical" name="LCORR"> T  </i>
  </separator>
  <i type="logical" name="GGA_COMPAT"> T  </i>
  <i type="logical" name="LBERRY"> F  </i>
  <i type="int" name="ICORELEVEL">     0</i>
  <i type="logical" name="LDAU"> F  </i>
  <i type="int" name="I_CONSTRAINED_M">     0</i>
  <separator name="electronic exchange-correlation" >
   <i type="string" name="GGA">--</i>
   <i type="int" name="VOSKOWN">     0</i>
   <i type="logical" name="LHFCALC"> F  </i>
   <i type="string" name="PRECFOCK"></i>
   <i type="logical" name="LSYMGRAD"> F  </i>
   <i type="logical" name="LHFONE"> F  </i>
   <i type="logical" name="LRHFCALC"> F  </i>
   <i type="logical" name="LTHOMAS"> F  </i>
   <i type="logical" name="LMODELHF"> F  </i>
   <i name="ENCUT4O">     -1.00000000</i>
   <i type="int" name="EXXOEP">     0</i>
   <i type="int" name="FOURORBIT">     0</i>
   <i name="AEXX">      0.00000000</i>
   <i name="HFALPHA">      0.00000000</i>
   <i name="MCALPHA">      0.00000000</i>
   <i name="ALDAX">      1.00000000</i>
   <i name="AGGAX">      1.00000000</i>
   <i name="ALDAC">      1.00000000</i>
   <i name="AGGAC">      1.00000000</i>
   <i type="int" name="NKREDX">     1</i>
   <i type="int" name="NKREDY">     1</i>
   <i type="int" name="NKREDZ">     1</i>
   <i type="logical" name="SHIFTRED"> F  </i>
   <i type="logical" name="ODDONLY"> F  </i>
   <i type="logical" name="EVENONLY"> F  </i>
   <i type="int" name="LMAXFOCK">     0</i>
   <i type="int" name="NMAXFOCKAE">     0</i>
   <i type="logical" name="LFOCKAEDFT"> F  </i>
   <i name="HFSCREEN">      0.00000000</i>
   <i name="HFSCREENC">      0.00000000</i>
   <i type="int" name="NBANDSGWLOW">     0</i>
  </separator>
  <separator name="vdW DFT" >
   <i type="logical" name="LUSE_VDW"> F  </i>
   <i name="Zab_VDW">     -0.84910000</i>
   <i name="PARAM1">      0.12340000</i>
   <i name="PARAM2">      1.00000000</i>
   <i name="PARAM3">      0.00000000</i>
  </separator>
  <separator name="model GW" >
   <i type="int" name="MODEL_GW">     0</i>
   <i name="MODEL_EPS0">     12.26874997</i>
   <i name="MODEL_ALPHA">      1.00000000</i>
  </separator>
  <separator name="linear response parameters" >
   <i type="logical" name="LEPSILON"> F  </i>
   <i type="logical" name="LRPA"> F  </i>
   <i type="logical" name="LNABLA"> F  </i>
   <i type="logical" name="LVEL"> F  </i>
   <i type="int" name="KINTER">     0</i>
   <i name="CSHIFT">      0.10000000</i>
   <i name="OMEGAMAX">     -1.00000000</i>
   <i name="DEG_THRESHOLD">      0.00200000</i>
  </separator>
  <separator name="orbital magnetization" >
   <i type="logical" name="NUCIND"> F  </i>
   <v name="MAGPOS">      0.00000000      0.00000000      0.00000000</v>
   <i type="logical" name="LNICSALL"> T  </i>
   <i type="logical" name="ORBITALMAG"> F  </i>
   <i type="logical" name="LMAGBLOCH"> F  </i>
   <i type="logical" name="LCHIMAG"> F  </i>
   <i type="logical" name="LGAUGE"> T  </i>
   <i type="int" name="MAGATOM">     0</i>
   <v name="MAGDIPOL">      0.00000000      0.00000000      0.00000000</v>
   <v name="AVECCONST">      0.00000000      0.00000000      0.00000000</v>
  </separator>
  <separator name="response functions" >
   <i type="logical" name="LADDER"> F  </i>
   <i type="logical" name="LFXC"> F  </i>
   <i type="logical" name="LHARTREE"> T  </i>
   <i type="int" name="IBSE">     0</i>
   <v type="int" name="KPOINT">    -1     0     0     0</v>
   <i type="logical" name="LTCTE"> F  </i>
   <i type="logical" name="LTETE"> F  </i>
   <i type="logical" name="LTRIPLET"> F  </i>
   <i type="logical" name="LFXCEPS"> F  </i>
   <i type="logical" name="LFXHEG"> F  </i>
   <i type="int" name="NATURALO">     0</i>
   <i type="logical" name="L2ORDER"> F  </i>
   <i type="logical" name="LUSEW"> F  </i>
   <i name="ENCUTGW">     -2.00000000</i>
   <i name="ENCUTGWSOFT">     -2.00000000</i>
   <i name="ENCUTLF">     -1.00000000</i>
   <i type="int" name="LMAXMP2">    -1</i>
   <i name="SCISSOR">      0.00000000</i>
   <i type="int" name="NOMEGA">     0</i>
   <i type="int" name="NOMEGAR">     0</i>
   <i type="int" name="NBANDSGW">    -1</i>
   <i type="int" name="NBANDSO">    -1</i>
   <i type="int" name="NBANDSV">    -1</i>
   <i type="int" name="NELM">     1</i>
   <i type="int" name="NELMHF">     1</i>
   <i type="int" name="DIM">     3</i>
   <i type="int" name="ANTIRES">     0</i>
   <i name="OMEGAMAX">    -30.00000000</i>
   <i name="OMEGAMIN">    -30.00000000</i>
   <i name="OMEGATL">   -200.00000000</i>
   <i type="int" name="OMEGAGRID">     0</i>
   <i name="CSHIFT">     -0.10000000</i>
   <i type="logical" name="SELFENERGY"> F  </i>
   <i type="logical" name="LSPECTRAL"> F  </i>
   <i type="logical" name="LSPECTRALGW"> F  </i>
   <i type="logical" name="LSINGLES"> F  </i>
   <i type="logical" name="LFERMIGW"> F  </i>
   <i type="logical" name="ODDONLYGW"> F  </i>
   <i type="logical" name="EVENONLYGW"> F  </i>
   <i type="int" name="NKREDLFX">     1</i>
   <i type="int" name="NKREDLFY">     1</i>
   <i type="int" name="NKREDLFZ">     1</i>
   <i type="int" name="MAXMEM">  1800</i>
   <i type="int" name="TELESCOPE">     0</i>
   <i type="int" name="TAUPAR">     1</i>
   <i type="int" name="OMEGAPAR">    -1</i>
   <i name="LAMBDA">      1.00000000</i>
  </separator>
  <separator name="External order field" >
   <i name="OFIELD_KAPPA">      0.00000000</i>
   <v name="OFIELD_K">      0.00000000      0.00000000      0.00000000</v>
   <i name="OFIELD_Q6_NEAR">      0.00000000</i>
   <i name="OFIELD_Q6_FAR">      0.00000000</i>
   <i name="OFIELD_A">      0.00000000</i>
  </separator>
 </parameters>
 <atominfo>
  <atoms>       8 </atoms>
  <types>       1 </types>
  <array name="atoms" >
   <dimension dim="1">ion</dimension>
   <field type="string">element</field>
   <field type="int">atomtype</field>
   <set>
    <rc><c>Si</c><c>   1</c></rc>
    <rc><c>Si</c><c>   1</c></rc>
    <rc><c>Si</c><c>   1</c></rc>
    <rc><c>Si</c><c>   1</c></rc>
    <rc><c>Si</c><c>   1</c></rc>
    <rc><c>Si</c><c>   1</c></rc>
    <rc><c>Si</c><c>   1</c></rc>
    <rc><c>Si</c><c>   1</c></rc>
   </set>
  </array>
  <array name="atomtypes" >
   <dimension dim="1">type</dimension>
   <field type="int">atomspertype</field>
   <field type="string">element</field>
   <field>mass</field>
   <field>valence</field>
   <field type="string">pseudopotential</field>
   <set>
    <rc><c>   8</c><c>Si</c><c>     28.08500000</c><c>      4.00000000</c><c>  PAW_PBE Si 05Jan2001                  </c></rc>
   </set>
  </array>
 </atominfo>
 <structure name="initialpos" >
  <crystal>
   <varray name="basis" >
    <v>       5.46906415       0.00000000       0.00000000 </v>
    <v>       0.00000000       5.46906415       0.00000000 </v>
    <v>       0.00000000       0.00000000       5.46906415 </v>
   </varray>
   <i name="volume">    163.58333295 </i>
   <varray name="rec_basis" >
    <v>       0.18284664       0.00000000       0.00000000 </v>
    <v>       0.00000000       0.18284664       0.00000000 </v>
    <v>       0.00000000       0.00000000       0.18284664 </v>
   </varray>
  </crystal>
  <varray name="positions" >
   <v>       0.13705601       0.00626410       0.08895627 </v>
   <v>       0.37577004       0.27053293       0.33037674 </v>
   <v>       0.63406999       0.49398868       0.06802337 </v>
   <v>       0.87267378       0.75838981       0.32380966 </v>
   <v>       0.61204955       0.00460319       0.57492200 </v>
   <v>       0.88227920       0.23263954       0.82088166 </v>
   <v>       0.11914328       0.50969950       0.57485432 </v>
   <v>       0.38418945       0.75568911       0.84418443 </v>
  </varray>
 </structure>
 <calculation>
  <scstep>
   <time name="dav">    6.15    6.21</time>
   <time name="total">    6.22    6.29</time>
   <energy>
    <i name="alphaZ">     13.17029267 </i>
    <i name="ewald">   -908.06102699 </i>
    <i name="hartreedc">    -45.17458321 </i>
    <i name="XCdc">    -74.75907371 </i>
    <i name="pawpsdc">    704.99039692 </i>
    <i name="pawaedc">   -564.24414232 </i>
    <i name="eentropy">     -0.00000039 </i>
    <i name="bandstr">    103.67416900 </i>
    <i name="atom">    824.52596983 </i>
    <i name="e_fr_energy">     54.12200180 </i>
    <i name="e_wo_entrp">     54.12200219 </i>
    <i name="e_0_energy">     54.12200190 </i>
   </energy>
  </scstep>
  <scstep>
   <time name="dav">    7.51    7.52</time>
   <time name="total">    7.53    7.55</time>
   <energy>
    <i name="e_fr_energy">    -39.70111852 </i>
    <i name="e_wo_entrp">    -39.70112044 </i>
    <i name="e_0_energy">    -39.70111900 </i>
   </energy>
  </scstep>
  <scstep>
   <time name="dav">    7.54    7.54</time>
   <time name="total">    7.54    7.55</time>
   <energy>
    <i name="e_fr_energy">    -43.86740300 </i>
    <i name="e_wo_entrp">    -43.86740300 </i>
    <i name="e_0_energy">    -43.86740300 </i>
   </energy>
  </scstep>
  <scstep>
   <time name="dav">    7.24    7.25</time>
   <time name="total">    7.26    7.26</time>
   <energy>
    <i name="e_fr_energy">    -43.93763305 </i>
    <i name="e_wo_entrp">    -43.93763305 </i>
    <i name="e_0_energy">    -43.93763305 </i>
   </energy>
  </scstep>
  <scstep>
   <time name="dav">    7.58    7.59</time>
   <time name="total">    7.80    7.82</time>
   <energy>
    <i name="e_fr_energy">    -43.93942622 </i>
    <i name="e_wo_entrp">    -43.93942980 </i>
    <i name="e_0_energy">    -43.93942711 </i>
   </energy>
  </scstep>
  <scstep>
   <time name="dav">    7.04    7.04</time>
   <time name="total">    7.27    7.29</time>
   <energy>
    <i name="e_fr_energy">    -43.47344486 </i>
    <i name="e_wo_entrp">    -43.47344486 </i>
    <i name="e_0_energy">    -43.47344486 </i>
   </energy>
  </scstep>
  <scstep>
   <time name="dav">    6.93    6.92</time>
   <time name="total">    7.18    7.18</time>
   <energy>
    <i name="e_fr_energy">    -43.26092772 </i>
    <i name="e_wo_entrp">    -43.26092908 </i>
    <i name="e_0_energy">    -43.26092806 </i>
   </energy>
  </scstep>
  <scstep>
   <time name="dav">    7.34    7.33</time>
   <time name="total">    7.55    7.58</time>
   <energy>
    <i name="e_fr_energy">    -43.26510520 </i>
    <i name="e_wo_entrp">    -43.26510659 </i>
    <i name="e_0_energy">    -43.26510555 </i>
   </energy>
  </scstep>
  <scstep>
   <time name="dav">    7.41    7.40</time>
   <time name="total">    7.65    7.65</time>
   <energy>
    <i name="e_fr_energy">    -43.26594274 </i>
    <i name="e_wo_entrp">    -43.26594412 </i>
    <i name="e_0_energy">    -43.26594308 </i>
   </energy>
  </scstep>
  <scstep>
   <time name="dav">    6.96    6.96</time>
   <time name="total">    7.19    7.21</time>
   <energy>
    <i name="e_fr_energy">    -43.26612401 </i>
    <i name="e_wo_entrp">    -43.26612540 </i>
    <i name="e_0_energy">    -43.26612436 </i>
   </energy>
  </scstep>
  <scstep>
   <time name="dav">    5.66    5.66</time>
   <time name="total">    5.70    5.71</time>
   <energy>
    <i name="alphaZ">     13.17029267 </i>
    <i name="ewald">   -908.06102699 </i>
    <i name="hartreedc">    -60.36873389 </i>
    <i name="XCdc">    -72.28186454 </i>
    <i name="pawpsdc">   3293.75757080 </i>
    <i name="pawaedc">  -3153.82301220 </i>
    <i name="eentropy">      0.00000140 </i>
    <i name="bandstr">     19.81465215 </i>
    <i name="atom">    824.52596983 </i>
    <i name="e_fr_energy">    -43.26615077 </i>
    <i name="e_wo_entrp">    -43.26615216 </i>
    <i name="e_0_energy">    -43.26615112 </i>
   </energy>
  </scstep>
  <structure>
   <crystal>
    <varray name="basis" >
     <v>       5.46906415       0.00000000       0.00000000 </v>
     <v>       0.00000000       5.46906415       0.00000000 </v>
     <v>       0.00000000       0.00000000       5.46906415 </v>
    </varray>
    <i name="volume">    163.58333295 </i>
    <varray name="rec_basis" >
     <v>       0.18284664       0.00000000       0.00000000 </v>
     <v>       0.00000000       0.18284664       0.00000000 </v>
     <v>       0.00000000       0.00000000       0.18284664 </v>
    </varray>
   </crystal>
   <varray name="positions" >
    <v>       0.13705601       0.00626410       0.08895627 </v>
    <v>       0.37577004       0.27053293       0.33037674 </v>
    <v>       0.63406999       0.49398868       0.06802337 </v>
    <v>       0.87267378       0.75838981       0.32380966 </v>
    <v>       0.61204955       0.00460319       0.57492200 </v>
    <v>       0.88227920       0.23263954       0.82088166 </v>
    <v>       0.11914328       0.50969950       0.57485432 </v>
    <v>       0.38418945       0.75568911       0.84418443 </v>
   </varray>
  </structure>
  <varray name="forces" >
   <v>      -0.29248028       0.00128075      -0.13070815 </v>
   <v>       0.05137306      -0.20267414      -0.03589730 </v>
   <v>       0.44875707       0.06956205       0.26335803 </v>
   <v>      -0.23229255      -0.13895565       0.04096522 </v>
   <v>       0.39366215      -0.19873769      -0.01090535 </v>
   <v>       0.04678185       0.59483661      -0.02826085 </v>
   <v>       0.17855471       0.21005256       0.77118256 </v>
   <v>      -0.59435600      -0.33536449      -0.86973416 </v>
  </varray>
  <varray name="stress" >
   <v>      -0.87786637      -5.87258812      -1.45994285 </v>
   <v>      -5.87258801      -1.12447581      -4.56265881 </v>
   <v>      -1.45994292      -4.56265887      -1.86839116 </v>
  </varray>
  <energy>
   <i name="e_fr_energy">    -43.26615077 </i>
   <i name="e_wo_entrp">    -43.26615112 </i>
   <i name="e_0_energy">      0.00000140 </i>
  </energy>
  <time name="totalsc">   84.09   84.47</time>
  <eigenvalues>
   <array>
    <dimension dim="1">band</dimension>
    <dimension dim="2">kpoint</dimension>
    <dimension dim="3">spin</dimension>
    <field>eigene</field>
    <field>occ</field>
    <set>
     <set comment="spin 1">
      <set comment="kpoint 1">
       <r>   -6.1518    1.0000 </r>
       <r>   -2.6446    1.0000 </r>
       <r>   -2.5705    1.0000 </r>
       <r>   -2.5362    1.0000 </r>
       <r>   -1.6962    1.0000 </r>
       <r>   -1.6310    1.0000 </r>
       <r>   -1.5713    1.0000 </r>
       <r>    2.6213    1.0000 </r>
       <r>    2.6369    1.0000 </r>
       <r>    2.7196    1.0000 </r>
       <r>    2.8146    1.0000 </r>
       <r>    2.8560    1.0000 </r>
       <r>    2.8851    1.0000 </r>
       <r>    5.1887    1.0000 </r>
       <r>    5.4049    1.0000 </r>
       <r>    5.5075    1.0000 </r>
       <r>    6.2851    0.0000 </r>
       <r>    6.3581    0.0000 </r>
       <r>    6.4239    0.0000 </r>
       <r>    6.6942    0.0000 </r>
       <r>    6.7347    0.0000 </r>
       <r>    6.8609    0.0000 </r>
       <r>    8.1689    0.0000 </r>
       <r>    8.3002    0.0000 </r>
      </set>
      <set comment="kpoint 2">
       <r>   -6.0185    1.0000 </r>
       <r>   -3.4353    1.0000 </r>
       <r>   -2.5459    1.0000 </r>
       <r>   -2.5078    1.0000 </r>
       <r>   -1.6408    1.0000 </r>
       <r>   -1.6035    1.0000 </r>
       <r>   -0.6407    1.0000 </r>
       <r>    2.2196    1.0000 </r>
       <r>    2.2554    1.0000 </r>
       <r>    2.6887    1.0000 </r>
       <r>    2.7514    1.0000 </r>
       <r>    2.8293    1.0000 </r>
       <r>    2.9686    1.0000 </r>
       <r>    4.4211    1.0000 </r>
       <r>    5.0663    1.0000 </r>
       <r>    5.2173    1.0000 </r>
       <r>    6.3571    0.0000 </r>
       <r>    6.7693    0.0000 </r>
       <r>    6.8059    0.0000 </r>
       <r>    7.0802    0.0000 </r>
       <r>    7.5063    0.0000 </r>
       <r>    7.5919    0.0000 </r>
       <r>    8.0386    0.0000 </r>
       <r>    8.5665    0.0000 </r>
      </set>
      <set comment="kpoint 3">
       <r>   -5.7531    1.0000 </r>
       <r>   -4.1862    1.0000 </r>
       <r>   -2.4708    1.0000 </r>
       <r>   -2.4211    1.0000 </r>
       <r>   -1.6300    1.0000 </r>
       <r>   -1.5783    1.0000 </r>
       <r>    0.3879    1.0000 </r>
       <r>    1.8533    1.0000 </r>
       <r>    1.8866    1.0000 </r>
       <r>    2.4066    1.0000 </r>
       <r>    2.4513    1.0000 </r>
       <r>    3.0998    1.0000 </r>
       <r>    3.2023    1.0000 </r>
       <r>    3.5173    1.0000 </r>
       <r>    4.5290    1.0000 </r>
       <r>    4.6212    1.0000 </r>
       <r>    6.4963    0.0000 </r>
       <r>    7.5255    0.0000 </r>
       <r>    7.6346    0.0000 </r>
       <r>    7.7154    0.0000 </r>
       <r>    7.7807    0.0000 </r>
       <r>    8.6610    0.0000 </r>
       <r>    8.7156    0.0000 </r>
       <r>    9.3354    0.0000 </r>
      </set>
      <set comment="kpoint 4">
       <r>   -5.3606    1.0000 </r>
       <r>   -4.8249    1.0000 </r>
       <r>   -2.4130    1.0000 </r>
       <r>   -2.3533    1.0000 </r>
       <r>   -1.6251    1.0000 </r>
       <r>   -1.5624    1.0000 </r>
       <r>    1.4119    1.0000 </r>
       <r>    1.6567    1.0000 </r>
       <r>    1.6785    1.0000 </r>
       <r>    2.1970    1.0000 </r>
       <r>    2.2400    1.0000 </r>
       <r>    2.5312    1.0000 </r>
       <r>    3.5244    1.0000 </r>
       <r>    3.5459    1.0000 </r>
       <r>    3.9891    1.0000 </r>
       <r>    4.0236    1.0000 </r>
       <r>    6.7575    0.0000 </r>
       <r>    7.1388    0.0000 </r>
       <r>    8.3875    0.0000 </r>
       <r>    8.9128    0.0000 </r>
       <r>    8.9585    0.0000 </r>
       <r>    9.2669    0.0000 </r>
       <r>    9.8916    0.0000 </r>
       <r>    9.9579    0.0000 </r>
      </set>
      <set comment="kpoint 5">
       <r>   -5.3579    1.0000 </r>
       <r>   -4.8288    1.0000 </r>
       <r>   -2.4155    1.0000 </r>
       <r>   -2.3556    1.0000 </r>
       <r>   -1.6192    1.0000 </r>
       <r>   -1.5591    1.0000 </r>
       <r>    1.4469    1.0000 </r>
       <r>    1.6512    1.0000 </r>
       <r>    1.6716    1.0000 </r>
       <r>    2.2144    1.0000 </r>
       <r>    2.2497    1.0000 </r>
       <r>    2.4519    1.0000 </r>
       <r>    3.4646    1.0000 </r>
       <r>    3.5456    1.0000 </r>
       <r>    4.0118    1.0000 </r>
       <r>    4.0915    1.0000 </r>
       <r>    6.7634    0.0000 </r>
       <r>    7.1309    0.0000 </r>
       <r>    8.3894    0.0000 </r>
       <r>    8.9581    0.0000 </r>
       <r>    9.0206    0.0000 </r>
       <r>    9.2381    0.0000 </r>
       <r>    9.8585    0.0000 </r>
       <r>    9.8878    0.0000 </r>
      </set>
      <set comment="kpoint 6">
       <r>   -5.7513    1.0000 </r>
       <r>   -4.1918    1.0000 </r>
       <r>   -2.4759    1.0000 </r>
       <r>   -2.4251    1.0000 </r>
       <r>   -1.6179    1.0000 </r>
       <r>   -1.5723    1.0000 </r>
       <r>    0.4223    1.0000 </r>
       <r>    1.8186    1.0000 </r>
       <r>    1.8504    1.0000 </r>
       <r>    2.4392    1.0000 </r>
       <r>    2.4787    1.0000 </r>
       <r>    3.0535    1.0000 </r>
       <r>    3.2037    1.0000 </r>
       <r>    3.4204    1.0000 </r>
       <r>    4.5278    1.0000 </r>
       <r>    4.7499    1.0000 </r>
       <r>    6.4992    0.0000 </r>
       <r>    7.5021    0.0000 </r>
       <r>    7.6197    0.0000 </r>
       <r>    7.7939    0.0000 </r>
       <r>    7.8295    0.0000 </r>
       <r>    8.6238    0.0000 </r>
       <r>    8.6625    0.0000 </r>
       <r>    9.3240    0.0000 </r>
      </set>
      <set comment="kpoint 7">
       <r>   -6.0175    1.0000 </r>
       <r>   -3.4436    1.0000 </r>
       <r>   -2.5503    1.0000 </r>
       <r>   -2.5083    1.0000 </r>
       <r>   -1.6328    1.0000 </r>
       <r>   -1.6009    1.0000 </r>
       <r>   -0.6141    1.0000 </r>
       <r>    2.1734    1.0000 </r>
       <r>    2.2165    1.0000 </r>
       <r>    2.7378    1.0000 </r>
       <r>    2.7441    1.0000 </r>
       <r>    2.8367    1.0000 </r>
       <r>    2.9687    1.0000 </r>
       <r>    4.2950    1.0000 </r>
       <r>    5.0673    1.0000 </r>
       <r>    5.3895    1.0000 </r>
       <r>    6.3575    0.0000 </r>
       <r>    6.7758    0.0000 </r>
       <r>    6.8309    0.0000 </r>
       <r>    7.1094    0.0000 </r>
       <r>    7.4917    0.0000 </r>
       <r>    7.5437    0.0000 </r>
       <r>    8.0275    0.0000 </r>
       <r>    8.5620    0.0000 </r>
      </set>
      <set comment="kpoint 8">
       <r>   -6.1515    1.0000 </r>
       <r>   -2.6633    1.0000 </r>
       <r>   -2.5847    1.0000 </r>
       <r>   -2.5093    1.0000 </r>
       <r>   -1.7231    1.0000 </r>
       <r>   -1.6298    1.0000 </r>
       <r>   -1.5314    1.0000 </r>
       <r>    2.5773    1.0000 </r>
       <r>    2.6317    1.0000 </r>
       <r>    2.6723    1.0000 </r>
       <r>    2.8429    1.0000 </r>
       <r>    2.8755    1.0000 </r>
       <r>    2.9203    1.0000 </r>
       <r>    5.0339    1.0000 </r>
       <r>    5.4707    1.0000 </r>
       <r>    5.6443    1.0048 </r>
       <r>    6.3099    0.0000 </r>
       <r>    6.3443    0.0000 </r>
       <r>    6.4046    0.0000 </r>
       <r>    6.7047    0.0000 </r>
       <r>    6.7594    0.0000 </r>
       <r>    6.8067    0.0000 </r>
       <r>    8.2068    0.0000 </r>
       <r>    8.2649    0.0000 </r>
      </set>
      <set comment="kpoint 9">
       <r>   -6.0187    1.0000 </r>
       <r>   -3.4306    1.0000 </r>
       <r>   -2.5660    1.0000 </r>
       <r>   -2.4965    1.0000 </r>
       <r>   -1.6584    1.0000 </r>
       <r>   -1.5757    1.0000 </r>
       <r>   -0.6507    1.0000 </r>
       <r>    2.2105    1.0000 </r>
       <r>    2.2819    1.0000 </r>
       <r>    2.6967    1.0000 </r>
       <r>    2.7260    1.0000 </r>
       <r>    2.8170    1.0000 </r>
       <r>    2.9865    1.0000 </r>
       <r>    4.4376    1.0000 </r>
       <r>    5.0921    1.0000 </r>
       <r>    5.1816    1.0000 </r>
       <r>    6.3595    0.0000 </r>
       <r>    6.7291    0.0000 </r>
       <r>    6.7944    0.0000 </r>
       <r>    7.0764    0.0000 </r>
       <r>    7.5239    0.0000 </r>
       <r>    7.6209    0.0000 </r>
       <r>    8.0249    0.0000 </r>
       <r>    8.6058    0.0000 </r>
      </set>
      <set comment="kpoint 10">
       <r>   -5.8875    1.0000 </r>
       <r>   -3.3877    1.0000 </r>
       <r>   -3.2919    1.0000 </r>
       <r>   -2.5652    1.0000 </r>
       <r>   -1.5490    1.0000 </r>
       <r>   -0.7513    1.0000 </r>
       <r>   -0.7022    1.0000 </r>
       <r>    1.7871    1.0000 </r>
       <r>    2.3910    1.0000 </r>
       <r>    2.4157    1.0000 </r>
       <r>    2.8570    1.0000 </r>
       <r>    2.9391    1.0000 </r>
       <r>    3.0554    1.0000 </r>
       <r>    3.6841    1.0000 </r>
       <r>    4.7201    1.0000 </r>
       <r>    5.3177    1.0000 </r>
       <r>    6.6285    0.0000 </r>
       <r>    6.8270    0.0000 </r>
       <r>    6.9062    0.0000 </r>
       <r>    7.7162    0.0000 </r>
       <r>    7.8310    0.0000 </r>
       <r>    8.2469    0.0000 </r>
       <r>    8.5042    0.0000 </r>
       <r>    8.6802    0.0000 </r>
      </set>
      <set comment="kpoint 11">
       <r>   -5.6258    1.0000 </r>
       <r>   -4.0792    1.0000 </r>
       <r>   -3.1684    1.0000 </r>
       <r>   -2.6485    1.0000 </r>
       <r>   -1.4225    1.0000 </r>
       <r>   -0.8878    1.0000 </r>
       <r>    0.1869    1.0000 </r>
       <r>    1.5202    1.0000 </r>
       <r>    1.9814    1.0000 </r>
       <r>    2.6962    1.0000 </r>
       <r>    2.7413    1.0000 </r>
       <r>    2.8724    1.0000 </r>
       <r>    3.0250    1.0000 </r>
       <r>    3.2524    1.0000 </r>
       <r>    4.1552    1.0000 </r>
       <r>    4.9682    1.0000 </r>
       <r>    7.0448    0.0000 </r>
       <r>    7.1390    0.0000 </r>
       <r>    7.8338    0.0000 </r>
       <r>    8.0930    0.0000 </r>
       <r>    8.2918    0.0000 </r>
       <r>    8.7982    0.0000 </r>
       <r>    8.8787    0.0000 </r>
       <r>    9.5315    0.0000 </r>
      </set>
      <set comment="kpoint 12">
       <r>   -5.2391    1.0000 </r>
       <r>   -4.7058    1.0000 </r>
       <r>   -2.9606    1.0000 </r>
       <r>   -2.7984    1.0000 </r>
       <r>   -1.2332    1.0000 </r>
       <r>   -1.1026    1.0000 </r>
       <r>    1.0600    1.0000 </r>
       <r>    1.4852    1.0000 </r>
       <r>    1.6359    1.0000 </r>
       <r>    2.0433    1.0000 </r>
       <r>    2.7288    1.0000 </r>
       <r>    2.8112    1.0000 </r>
       <r>    3.1201    1.0000 </r>
       <r>    3.5733    1.0000 </r>
       <r>    3.8025    1.0000 </r>
       <r>    4.3301    1.0000 </r>
       <r>    7.3440    0.0000 </r>
       <r>    7.7374    0.0000 </r>
       <r>    8.1620    0.0000 </r>
       <r>    8.8862    0.0000 </r>
       <r>    9.0485    0.0000 </r>
       <r>    9.4258    0.0000 </r>
       <r>    9.5563    0.0000 </r>
       <r>   10.0058    0.0000 </r>
      </set>
      <set comment="kpoint 13">
       <r>   -5.2318    1.0000 </r>
       <r>   -4.7161    1.0000 </r>
       <r>   -3.0092    1.0000 </r>
       <r>   -2.7356    1.0000 </r>
       <r>   -1.3327    1.0000 </r>
       <r>   -1.0073    1.0000 </r>
       <r>    1.1420    1.0000 </r>
       <r>    1.4660    1.0000 </r>
       <r>    1.6705    1.0000 </r>
       <r>    1.9102    1.0000 </r>
       <r>    2.6635    1.0000 </r>
       <r>    2.8808    1.0000 </r>
       <r>    3.0949    1.0000 </r>
       <r>    3.5906    1.0000 </r>
       <r>    3.7106    1.0000 </r>
       <r>    4.4608    1.0000 </r>
       <r>    7.3599    0.0000 </r>
       <r>    7.7251    0.0000 </r>
       <r>    8.2376    0.0000 </r>
       <r>    8.8933    0.0000 </r>
       <r>    9.0673    0.0000 </r>
       <r>    9.4182    0.0000 </r>
       <r>    9.4909    0.0000 </r>
       <r>   10.0671    0.0000 </r>
      </set>
      <set comment="kpoint 14">
       <r>   -5.6208    1.0000 </r>
       <r>   -4.0929    1.0000 </r>
       <r>   -3.2047    1.0000 </r>
       <r>   -2.5792    1.0000 </r>
       <r>   -1.5133    1.0000 </r>
       <r>   -0.8077    1.0000 </r>
       <r>    0.2658    1.0000 </r>
       <r>    1.4693    1.0000 </r>
       <r>    1.9804    1.0000 </r>
       <r>    2.6319    1.0000 </r>
       <r>    2.7045    1.0000 </r>
       <r>    2.7701    1.0000 </r>
       <r>    3.0959    1.0000 </r>
       <r>    3.1931    1.0000 </r>
       <r>    4.1646    1.0000 </r>
       <r>    5.1349    1.0000 </r>
       <r>    7.0602    0.0000 </r>
       <r>    7.2124    0.0000 </r>
       <r>    7.8219    0.0000 </r>
       <r>    8.1638    0.0000 </r>
       <r>    8.2478    0.0000 </r>
       <r>    8.8140    0.0000 </r>
       <r>    8.8684    0.0000 </r>
       <r>    9.5788    0.0000 </r>
      </set>
      <set comment="kpoint 15">
       <r>   -5.8846    1.0000 </r>
       <r>   -3.3713    1.0000 </r>
       <r>   -3.3511    1.0000 </r>
       <r>   -2.5102    1.0000 </r>
       <r>   -1.6156    1.0000 </r>
       <r>   -0.6854    1.0000 </r>
       <r>   -0.6524    1.0000 </r>
       <r>    1.7240    1.0000 </r>
       <r>    2.3697    1.0000 </r>
       <r>    2.3843    1.0000 </r>
       <r>    2.8660    1.0000 </r>
       <r>    2.8961    1.0000 </r>
       <r>    3.1185    1.0000 </r>
       <r>    3.5512    1.0000 </r>
       <r>    4.7240    1.0000 </r>
       <r>    5.5166    1.0000 </r>
       <r>    6.6812    0.0000 </r>
       <r>    6.8640    0.0000 </r>
       <r>    6.8905    0.0000 </r>
       <r>    7.7705    0.0000 </r>
       <r>    7.7920    0.0000 </r>
       <r>    8.2730    0.0000 </r>
       <r>    8.4568    0.0000 </r>
       <r>    8.5567    0.0000 </r>
      </set>
      <set comment="kpoint 16">
       <r>   -6.0178    1.0000 </r>
       <r>   -3.4356    1.0000 </r>
       <r>   -2.6046    1.0000 </r>
       <r>   -2.4619    1.0000 </r>
       <r>   -1.7004    1.0000 </r>
       <r>   -1.5206    1.0000 </r>
       <r>   -0.6329    1.0000 </r>
       <r>    2.1572    1.0000 </r>
       <r>    2.2632    1.0000 </r>
       <r>    2.6954    1.0000 </r>
       <r>    2.7692    1.0000 </r>
       <r>    2.7960    1.0000 </r>
       <r>    3.0056    1.0000 </r>
       <r>    4.3162    1.0000 </r>
       <r>    5.1243    1.0000 </r>
       <r>    5.3022    1.0000 </r>
       <r>    6.3644    0.0000 </r>
       <r>    6.7262    0.0000 </r>
       <r>    6.8589    0.0000 </r>
       <r>    7.0851    0.0000 </r>
       <r>    7.4749    0.0000 </r>
       <r>    7.5991    0.0000 </r>
       <r>    8.0246    0.0000 </r>
       <r>    8.5832    0.0000 </r>
      </set>
      <set comment="kpoint 17">
       <r>   -5.7535    1.0000 </r>
       <r>   -4.1833    1.0000 </r>
       <r>   -2.4871    1.0000 </r>
       <r>   -2.4147    1.0000 </r>
       <r>   -1.6360    1.0000 </r>
       <r>   -1.5610    1.0000 </r>
       <r>    0.3767    1.0000 </r>
       <r>    1.8445    1.0000 </r>
       <r>    1.9049    1.0000 </r>
       <r>    2.4045    1.0000 </r>
       <r>    2.4503    1.0000 </r>
       <r>    3.0737    1.0000 </r>
       <r>    3.2204    1.0000 </r>
       <r>    3.5480    1.0000 </r>
       <r>    4.5521    1.0000 </r>
       <r>    4.5794    1.0000 </r>
       <r>    6.4930    0.0000 </r>
       <r>    7.5135    0.0000 </r>
       <r>    7.6181    0.0000 </r>
       <r>    7.7164    0.0000 </r>
       <r>    7.7730    0.0000 </r>
       <r>    8.6755    0.0000 </r>
       <r>    8.7356    0.0000 </r>
       <r>    9.3570    0.0000 </r>
      </set>
      <set comment="kpoint 18">
       <r>   -5.6259    1.0000 </r>
       <r>   -4.0755    1.0000 </r>
       <r>   -3.1776    1.0000 </r>
       <r>   -2.6450    1.0000 </r>
       <r>   -1.4261    1.0000 </r>
       <r>   -0.8711    1.0000 </r>
       <r>    0.1731    1.0000 </r>
       <r>    1.5170    1.0000 </r>
       <r>    1.9932    1.0000 </r>
       <r>    2.6436    1.0000 </r>
       <r>    2.7466    1.0000 </r>
       <r>    2.9044    1.0000 </r>
       <r>    3.0382    1.0000 </r>
       <r>    3.2570    1.0000 </r>
       <r>    4.1475    1.0000 </r>
       <r>    4.9687    1.0000 </r>
       <r>    7.0581    0.0000 </r>
       <r>    7.1412    0.0000 </r>
       <r>    7.7917    0.0000 </r>
       <r>    8.1183    0.0000 </r>
       <r>    8.2507    0.0000 </r>
       <r>    8.8265    0.0000 </r>
       <r>    8.9089    0.0000 </r>
       <r>    9.5263    0.0000 </r>
      </set>
      <set comment="kpoint 19">
       <r>   -5.3714    1.0000 </r>
       <r>   -3.9188    1.0000 </r>
       <r>   -3.8176    1.0000 </r>
       <r>   -2.9390    1.0000 </r>
       <r>   -1.1680    1.0000 </r>
       <r>   -0.1683    1.0000 </r>
       <r>   -0.1397    1.0000 </r>
       <r>    1.3926    1.0000 </r>
       <r>    2.0630    1.0000 </r>
       <r>    2.2221    1.0000 </r>
       <r>    2.2911    1.0000 </r>
       <r>    3.2163    1.0000 </r>
       <r>    3.3622    1.0000 </r>
       <r>    3.4561    1.0000 </r>
       <r>    3.6004    1.0000 </r>
       <r>    5.0439    1.0000 </r>
       <r>    7.0804    0.0000 </r>
       <r>    7.9929    0.0000 </r>
       <r>    8.0528    0.0000 </r>
       <r>    8.4175    0.0000 </r>
       <r>    9.0085    0.0000 </r>
       <r>    9.1953    0.0000 </r>
       <r>    9.3086    0.0000 </r>
       <r>    9.3940    0.0000 </r>
      </set>
      <set comment="kpoint 20">
       <r>   -4.9965    1.0000 </r>
       <r>   -4.4754    1.0000 </r>
       <r>   -3.5760    1.0000 </r>
       <r>   -3.2747    1.0000 </r>
       <r>   -0.8371    1.0000 </r>
       <r>   -0.5564    1.0000 </r>
       <r>    0.5549    1.0000 </r>
       <r>    1.3403    1.0000 </r>
       <r>    1.5348    1.0000 </r>
       <r>    1.8130    1.0000 </r>
       <r>    2.5821    1.0000 </r>
       <r>    3.0253    1.0000 </r>
       <r>    3.4297    1.0000 </r>
       <r>    3.5051    1.0000 </r>
       <r>    4.0424    1.0000 </r>
       <r>    4.6140    1.0000 </r>
       <r>    7.6744    0.0000 </r>
       <r>    8.3017    0.0000 </r>
       <r>    8.5893    0.0000 </r>
       <r>    8.8313    0.0000 </r>
       <r>    8.8625    0.0000 </r>
       <r>    9.2458    0.0000 </r>
       <r>    9.4350    0.0000 </r>
       <r>    9.8644    0.0000 </r>
      </set>
      <set comment="kpoint 21">
       <r>   -4.9843    1.0000 </r>
       <r>   -4.4919    1.0000 </r>
       <r>   -3.6151    1.0000 </r>
       <r>   -3.2223    1.0000 </r>
       <r>   -0.9433    1.0000 </r>
       <r>   -0.4533    1.0000 </r>
       <r>    0.6631    1.0000 </r>
       <r>    1.2538    1.0000 </r>
       <r>    1.4953    1.0000 </r>
       <r>    1.8122    1.0000 </r>
       <r>    2.5635    1.0000 </r>
       <r>    3.0443    1.0000 </r>
       <r>    3.3538    1.0000 </r>
       <r>    3.5835    1.0000 </r>
       <r>    3.9181    1.0000 </r>
       <r>    4.7558    1.0000 </r>
       <r>    7.7567    0.0000 </r>
       <r>    8.3249    0.0000 </r>
       <r>    8.6101    0.0000 </r>
       <r>    8.7442    0.0000 </r>
       <r>    8.8808    0.0000 </r>
       <r>    9.2866    0.0000 </r>
       <r>    9.3412    0.0000 </r>
       <r>    9.8894    0.0000 </r>
      </set>
      <set comment="kpoint 22">
       <r>   -5.3630    1.0000 </r>
       <r>   -3.9039    1.0000 </r>
       <r>   -3.8844    1.0000 </r>
       <r>   -2.8719    1.0000 </r>
       <r>   -1.2735    1.0000 </r>
       <r>   -0.0727    1.0000 </r>
       <r>   -0.0361    1.0000 </r>
       <r>    1.3569    1.0000 </r>
       <r>    1.9731    1.0000 </r>
       <r>    2.2216    1.0000 </r>
       <r>    2.2345    1.0000 </r>
       <r>    3.2045    1.0000 </r>
       <r>    3.2310    1.0000 </r>
       <r>    3.5234    1.0000 </r>
       <r>    3.6003    1.0000 </r>
       <r>    5.2098    1.0000 </r>
       <r>    7.1536    0.0000 </r>
       <r>    8.0309    0.0000 </r>
       <r>    8.0609    0.0000 </r>
       <r>    8.4601    0.0000 </r>
       <r>    8.9603    0.0000 </r>
       <r>    9.2216    0.0000 </r>
       <r>    9.3114    0.0000 </r>
       <r>    9.4087    0.0000 </r>
      </set>
      <set comment="kpoint 23">
       <r>   -5.6211    1.0000 </r>
       <r>   -4.0874    1.0000 </r>
       <r>   -3.2168    1.0000 </r>
       <r>   -2.5752    1.0000 </r>
       <r>   -1.5200    1.0000 </r>
       <r>   -0.7788    1.0000 </r>
       <r>    0.2432    1.0000 </r>
       <r>    1.4632    1.0000 </r>
       <r>    1.9750    1.0000 </r>
       <r>    2.6602    1.0000 </r>
       <r>    2.6977    1.0000 </r>
       <r>    2.7546    1.0000 </r>
       <r>    3.0934    1.0000 </r>
       <r>    3.2150    1.0000 </r>
       <r>    4.1563    1.0000 </r>
       <r>    5.1334    1.0000 </r>
       <r>    7.0822    0.0000 </r>
       <r>    7.2009    0.0000 </r>
       <r>    7.8141    0.0000 </r>
       <r>    8.1007    0.0000 </r>
       <r>    8.2754    0.0000 </r>
       <r>    8.8269    0.0000 </r>
       <r>    8.9051    0.0000 </r>
       <r>    9.5460    0.0000 </r>
      </set>
      <set comment="kpoint 24">
       <r>   -5.7519    1.0000 </r>
       <r>   -4.1874    1.0000 </r>
       <r>   -2.5153    1.0000 </r>
       <r>   -2.3941    1.0000 </r>
       <r>   -1.6712    1.0000 </r>
       <r>   -1.5069    1.0000 </r>
       <r>    0.4032    1.0000 </r>
       <r>    1.7946    1.0000 </r>
       <r>    1.8903    1.0000 </r>
       <r>    2.4000    1.0000 </r>
       <r>    2.5048    1.0000 </r>
       <r>    3.0355    1.0000 </r>
       <r>    3.2328    1.0000 </r>
       <r>    3.4491    1.0000 </r>
       <r>    4.5704    1.0000 </r>
       <r>    4.6739    1.0000 </r>
       <r>    6.4995    0.0000 </r>
       <r>    7.4983    0.0000 </r>
       <r>    7.6301    0.0000 </r>
       <r>    7.7354    0.0000 </r>
       <r>    7.8471    0.0000 </r>
       <r>    8.5786    0.0000 </r>
       <r>    8.7444    0.0000 </r>
       <r>    9.3308    0.0000 </r>
      </set>
      <set comment="kpoint 25">
       <r>   -5.3613    1.0000 </r>
       <r>   -4.8229    1.0000 </r>
       <r>   -2.4266    1.0000 </r>
       <r>   -2.3531    1.0000 </r>
       <r>   -1.6203    1.0000 </r>
       <r>   -1.5503    1.0000 </r>
       <r>    1.3991    1.0000 </r>
       <r>    1.6415    1.0000 </r>
       <r>    1.6867    1.0000 </r>
       <r>    2.2045    1.0000 </r>
       <r>    2.2447    1.0000 </r>
       <r>    2.5334    1.0000 </r>
       <r>    3.5198    1.0000 </r>
       <r>    3.5666    1.0000 </r>
       <r>    3.9665    1.0000 </r>
       <r>    4.0315    1.0000 </r>
       <r>    6.7545    0.0000 </r>
       <r>    7.1425    0.0000 </r>
       <r>    8.3857    0.0000 </r>
       <r>    8.8789    0.0000 </r>
       <r>    8.9602    0.0000 </r>
       <r>    9.2825    0.0000 </r>
       <r>    9.9272    0.0000 </r>
       <r>    9.9763    0.0000 </r>
      </set>
      <set comment="kpoint 26">
       <r>   -5.2394    1.0000 </r>
       <r>   -4.7034    1.0000 </r>
       <r>   -2.9759    1.0000 </r>
       <r>   -2.7921    1.0000 </r>
       <r>   -1.2353    1.0000 </r>
       <r>   -1.0813    1.0000 </r>
       <r>    1.0408    1.0000 </r>
       <r>    1.4768    1.0000 </r>
       <r>    1.6493    1.0000 </r>
       <r>    2.0306    1.0000 </r>
       <r>    2.7173    1.0000 </r>
       <r>    2.8249    1.0000 </r>
       <r>    3.1416    1.0000 </r>
       <r>    3.5644    1.0000 </r>
       <r>    3.7959    1.0000 </r>
       <r>    4.3360    1.0000 </r>
       <r>    7.3561    0.0000 </r>
       <r>    7.7438    0.0000 </r>
       <r>    8.1509    0.0000 </r>
       <r>    8.8842    0.0000 </r>
       <r>    9.0254    0.0000 </r>
       <r>    9.4540    0.0000 </r>
       <r>    9.5626    0.0000 </r>
       <r>    9.9659    0.0000 </r>
      </set>
      <set comment="kpoint 27">
       <r>   -4.9966    1.0000 </r>
       <r>   -4.4724    1.0000 </r>
       <r>   -3.5838    1.0000 </r>
       <r>   -3.2731    1.0000 </r>
       <r>   -0.8362    1.0000 </r>
       <r>   -0.5371    1.0000 </r>
       <r>    0.5363    1.0000 </r>
       <r>    1.3473    1.0000 </r>
       <r>    1.5348    1.0000 </r>
       <r>    1.7902    1.0000 </r>
       <r>    2.5993    1.0000 </r>
       <r>    3.0154    1.0000 </r>
       <r>    3.4270    1.0000 </r>
       <r>    3.5205    1.0000 </r>
       <r>    4.0365    1.0000 </r>
       <r>    4.6169    1.0000 </r>
       <r>    7.6732    0.0000 </r>
       <r>    8.3196    0.0000 </r>
       <r>    8.5487    0.0000 </r>
       <r>    8.8421    0.0000 </r>
       <r>    8.9214    0.0000 </r>
       <r>    9.2296    0.0000 </r>
       <r>    9.4355    0.0000 </r>
       <r>    9.8357    0.0000 </r>
      </set>
      <set comment="kpoint 28">
       <r>   -4.6414    1.0000 </r>
       <r>   -4.1893    1.0000 </r>
       <r>   -4.0879    1.0000 </r>
       <r>   -3.7384    1.0000 </r>
       <r>   -0.3908    1.0000 </r>
       <r>   -0.0022    1.0000 </r>
       <r>    0.0325    1.0000 </r>
       <r>    0.7375    1.0000 </r>
       <r>    1.7278    1.0000 </r>
       <r>    2.0601    1.0000 </r>
       <r>    2.1282    1.0000 </r>
       <r>    2.5032    1.0000 </r>
       <r>    3.9704    1.0000 </r>
       <r>    4.0943    1.0000 </r>
       <r>    4.2762    1.0000 </r>
       <r>    4.5672    1.0000 </r>
       <r>    7.6838    0.0000 </r>
       <r>    8.2533    0.0000 </r>
       <r>    8.3177    0.0000 </r>
       <r>    8.4686    0.0000 </r>
       <r>    9.4821    0.0000 </r>
       <r>    9.5302    0.0000 </r>
       <r>    9.7944    0.0000 </r>
       <r>    9.9538    0.0000 </r>
      </set>
      <set comment="kpoint 29">
       <r>   -4.6248    1.0000 </r>
       <r>   -4.1750    1.0000 </r>
       <r>   -4.1550    1.0000 </r>
       <r>   -3.6996    1.0000 </r>
       <r>   -0.4953    1.0000 </r>
       <r>    0.1043    1.0000 </r>
       <r>    0.1449    1.0000 </r>
       <r>    0.6246    1.0000 </r>
       <r>    1.7122    1.0000 </r>
       <r>    2.0744    1.0000 </r>
       <r>    2.1048    1.0000 </r>
       <r>    2.5200    1.0000 </r>
       <r>    4.0229    1.0000 </r>
       <r>    4.0862    1.0000 </r>
       <r>    4.1019    1.0000 </r>
       <r>    4.7057    1.0000 </r>
       <r>    7.7649    0.0000 </r>
       <r>    8.2816    0.0000 </r>
       <r>    8.3113    0.0000 </r>
       <r>    8.3565    0.0000 </r>
       <r>    9.5111    0.0000 </r>
       <r>    9.5369    0.0000 </r>
       <r>    9.7311    0.0000 </r>
       <r>   10.0088    0.0000 </r>
      </set>
      <set comment="kpoint 30">
       <r>   -4.9847    1.0000 </r>
       <r>   -4.4871    1.0000 </r>
       <r>   -3.6240    1.0000 </r>
       <r>   -3.2231    1.0000 </r>
       <r>   -0.9422    1.0000 </r>
       <r>   -0.4197    1.0000 </r>
       <r>    0.6353    1.0000 </r>
       <r>    1.2539    1.0000 </r>
       <r>    1.4850    1.0000 </r>
       <r>    1.7920    1.0000 </r>
       <r>    2.5897    1.0000 </r>
       <r>    3.0353    1.0000 </r>
       <r>    3.3588    1.0000 </r>
       <r>    3.5882    1.0000 </r>
       <r>    3.9155    1.0000 </r>
       <r>    4.7629    1.0000 </r>
       <r>    7.7523    0.0000 </r>
       <r>    8.3488    0.0000 </r>
       <r>    8.5493    0.0000 </r>
       <r>    8.7447    0.0000 </r>
       <r>    8.9864    0.0000 </r>
       <r>    9.2424    0.0000 </r>
       <r>    9.3592    0.0000 </r>
       <r>    9.8420    0.0000 </r>
      </set>
      <set comment="kpoint 31">
       <r>   -5.2325    1.0000 </r>
       <r>   -4.7123    1.0000 </r>
       <r>   -3.0232    1.0000 </r>
       <r>   -2.7351    1.0000 </r>
       <r>   -1.3366    1.0000 </r>
       <r>   -0.9714    1.0000 </r>
       <r>    1.1256    1.0000 </r>
       <r>    1.4401    1.0000 </r>
       <r>    1.6433    1.0000 </r>
       <r>    1.9344    1.0000 </r>
       <r>    2.6640    1.0000 </r>
       <r>    2.8992    1.0000 </r>
       <r>    3.1091    1.0000 </r>
       <r>    3.5766    1.0000 </r>
       <r>    3.7052    1.0000 </r>
       <r>    4.4736    1.0000 </r>
       <r>    7.3739    0.0000 </r>
       <r>    7.7221    0.0000 </r>
       <r>    8.2333    0.0000 </r>
       <r>    8.9034    0.0000 </r>
       <r>    9.0542    0.0000 </r>
       <r>    9.3964    0.0000 </r>
       <r>    9.4953    0.0000 </r>
       <r>   10.0454    0.0000 </r>
      </set>
      <set comment="kpoint 32">
       <r>   -5.3591    1.0000 </r>
       <r>   -4.8258    1.0000 </r>
       <r>   -2.4385    1.0000 </r>
       <r>   -2.3473    1.0000 </r>
       <r>   -1.6516    1.0000 </r>
       <r>   -1.5056    1.0000 </r>
       <r>    1.4355    1.0000 </r>
       <r>    1.6150    1.0000 </r>
       <r>    1.6810    1.0000 </r>
       <r>    2.1888    1.0000 </r>
       <r>    2.2814    1.0000 </r>
       <r>    2.4811    1.0000 </r>
       <r>    3.4427    1.0000 </r>
       <r>    3.5854    1.0000 </r>
       <r>    3.9904    1.0000 </r>
       <r>    4.0902    1.0000 </r>
       <r>    6.7610    0.0000 </r>
       <r>    7.1348    0.0000 </r>
       <r>    8.3930    0.0000 </r>
       <r>    8.8889    0.0000 </r>
       <r>    9.0586    0.0000 </r>
       <r>    9.2442    0.0000 </r>
       <r>    9.8159    0.0000 </r>
       <r>    9.9745    0.0000 </r>
      </set>
      <set comment="kpoint 33">
       <r>   -5.3570    1.0000 </r>
       <r>   -4.8291    1.0000 </r>
       <r>   -2.4300    1.0000 </r>
       <r>   -2.3570    1.0000 </r>
       <r>   -1.6157    1.0000 </r>
       <r>   -1.5401    1.0000 </r>
       <r>    1.4560    1.0000 </r>
       <r>    1.6349    1.0000 </r>
       <r>    1.6639    1.0000 </r>
       <r>    2.2349    1.0000 </r>
       <r>    2.2446    1.0000 </r>
       <r>    2.4390    1.0000 </r>
       <r>    3.4199    1.0000 </r>
       <r>    3.5704    1.0000 </r>
       <r>    4.0251    1.0000 </r>
       <r>    4.1024    1.0000 </r>
       <r>    6.7701    0.0000 </r>
       <r>    7.1266    0.0000 </r>
       <r>    8.3968    0.0000 </r>
       <r>    8.9721    0.0000 </r>
       <r>    9.0344    0.0000 </r>
       <r>    9.2612    0.0000 </r>
       <r>    9.8020    0.0000 </r>
       <r>    9.8837    0.0000 </r>
      </set>
      <set comment="kpoint 34">
       <r>   -5.2303    1.0000 </r>
       <r>   -4.7163    1.0000 </r>
       <r>   -3.0120    1.0000 </r>
       <r>   -2.7474    1.0000 </r>
       <r>   -1.3053    1.0000 </r>
       <r>   -1.0070    1.0000 </r>
       <r>    1.1599    1.0000 </r>
       <r>    1.4410    1.0000 </r>
       <r>    1.6424    1.0000 </r>
       <r>    1.9075    1.0000 </r>
       <r>    2.6832    1.0000 </r>
       <r>    2.8703    1.0000 </r>
       <r>    3.0768    1.0000 </r>
       <r>    3.6027    1.0000 </r>
       <r>    3.7322    1.0000 </r>
       <r>    4.4563    1.0000 </r>
       <r>    7.3757    0.0000 </r>
       <r>    7.7248    0.0000 </r>
       <r>    8.2448    0.0000 </r>
       <r>    8.9096    0.0000 </r>
       <r>    9.1134    0.0000 </r>
       <r>    9.3929    0.0000 </r>
       <r>    9.4522    0.0000 </r>
       <r>   10.0945    0.0000 </r>
      </set>
      <set comment="kpoint 35">
       <r>   -4.9821    1.0000 </r>
       <r>   -4.4923    1.0000 </r>
       <r>   -3.6172    1.0000 </r>
       <r>   -3.2294    1.0000 </r>
       <r>   -0.9196    1.0000 </r>
       <r>   -0.4515    1.0000 </r>
       <r>    0.6714    1.0000 </r>
       <r>    1.2346    1.0000 </r>
       <r>    1.4681    1.0000 </r>
       <r>    1.8123    1.0000 </r>
       <r>    2.5506    1.0000 </r>
       <r>    3.0558    1.0000 </r>
       <r>    3.3684    1.0000 </r>
       <r>    3.5846    1.0000 </r>
       <r>    3.9276    1.0000 </r>
       <r>    4.7493    1.0000 </r>
       <r>    7.7523    0.0000 </r>
       <r>    8.3427    0.0000 </r>
       <r>    8.6260    0.0000 </r>
       <r>    8.7520    0.0000 </r>
       <r>    8.8735    0.0000 </r>
       <r>    9.3000    0.0000 </r>
       <r>    9.3906    0.0000 </r>
       <r>    9.8419    0.0000 </r>
      </set>
      <set comment="kpoint 36">
       <r>   -4.6212    1.0000 </r>
       <r>   -4.1753    1.0000 </r>
       <r>   -4.1579    1.0000 </r>
       <r>   -3.7031    1.0000 </r>
       <r>   -0.4750    1.0000 </r>
       <r>    0.1061    1.0000 </r>
       <r>    0.1475    1.0000 </r>
       <r>    0.6064    1.0000 </r>
       <r>    1.6895    1.0000 </r>
       <r>    2.0740    1.0000 </r>
       <r>    2.1062    1.0000 </r>
       <r>    2.5299    1.0000 </r>
       <r>    4.0293    1.0000 </r>
       <r>    4.0893    1.0000 </r>
       <r>    4.1052    1.0000 </r>
       <r>    4.7005    1.0000 </r>
       <r>    7.7631    0.0000 </r>
       <r>    8.2761    0.0000 </r>
       <r>    8.3063    0.0000 </r>
       <r>    8.3638    0.0000 </r>
       <r>    9.5472    0.0000 </r>
       <r>    9.5742    0.0000 </r>
       <r>    9.7522    0.0000 </r>
       <r>   10.0092    0.0000 </r>
      </set>
      <set comment="kpoint 37">
       <r>   -4.6376    1.0000 </r>
       <r>   -4.1884    1.0000 </r>
       <r>   -4.0891    1.0000 </r>
       <r>   -3.7469    1.0000 </r>
       <r>   -0.3559    1.0000 </r>
       <r>    0.0024    1.0000 </r>
       <r>    0.0347    1.0000 </r>
       <r>    0.7049    1.0000 </r>
       <r>    1.6988    1.0000 </r>
       <r>    2.0522    1.0000 </r>
       <r>    2.1156    1.0000 </r>
       <r>    2.5363    1.0000 </r>
       <r>    3.9744    1.0000 </r>
       <r>    4.1011    1.0000 </r>
       <r>    4.2847    1.0000 </r>
       <r>    4.5624    1.0000 </r>
       <r>    7.6835    0.0000 </r>
       <r>    8.2590    0.0000 </r>
       <r>    8.3110    0.0000 </r>
       <r>    8.4558    0.0000 </r>
       <r>    9.5033    0.0000 </r>
       <r>    9.5586    0.0000 </r>
       <r>    9.8574    0.0000 </r>
       <r>    9.9658    0.0000 </r>
      </set>
      <set comment="kpoint 38">
       <r>   -4.9937    1.0000 </r>
       <r>   -4.4754    1.0000 </r>
       <r>   -3.5765    1.0000 </r>
       <r>   -3.2882    1.0000 </r>
       <r>   -0.8012    1.0000 </r>
       <r>   -0.5492    1.0000 </r>
       <r>    0.5591    1.0000 </r>
       <r>    1.3192    1.0000 </r>
       <r>    1.5064    1.0000 </r>
       <r>    1.7845    1.0000 </r>
       <r>    2.5623    1.0000 </r>
       <r>    3.0577    1.0000 </r>
       <r>    3.4360    1.0000 </r>
       <r>    3.5196    1.0000 </r>
       <r>    4.0579    1.0000 </r>
       <r>    4.6092    1.0000 </r>
       <r>    7.6734    0.0000 </r>
       <r>    8.2969    0.0000 </r>
       <r>    8.6344    0.0000 </r>
       <r>    8.8092    0.0000 </r>
       <r>    8.8575    0.0000 </r>
       <r>    9.3020    0.0000 </r>
       <r>    9.4666    0.0000 </r>
       <r>    9.8376    0.0000 </r>
[...]
       <r>   -4.0825    1.0000 </r>
       <r>   -3.7143    1.0000 </r>
       <r>   -0.4455    1.0000 </r>
       <r>   -0.0360    1.0000 </r>
       <r>    0.2022    1.0000 </r>
       <r>    0.6575    1.0000 </r>
       <r>    1.6983    1.0000 </r>
       <r>    2.0490    1.0000 </r>
       <r>    2.1403    1.0000 </r>
       <r>    2.5119    1.0000 </r>
       <r>    4.0103    1.0000 </r>
       <r>    4.0862    1.0000 </r>
       <r>    4.1771    1.0000 </r>
       <r>    4.6651    1.0000 </r>
       <r>    7.7030    0.0000 </r>
       <r>    8.2746    0.0000 </r>
       <r>    8.3123    0.0000 </r>
       <r>    8.3774    0.0000 </r>
       <r>    9.4277    0.0000 </r>
       <r>    9.6218    0.0000 </r>
       <r>    9.7868    0.0000 </r>
       <r>   10.0050    0.0000 </r>
      </set>
      <set comment="kpoint 254">
       <r>   -4.9896    1.0000 </r>
       <r>   -4.4893    1.0000 </r>
       <r>   -3.5926    1.0000 </r>
       <r>   -3.2430    1.0000 </r>
       <r>   -0.8917    1.0000 </r>
       <r>   -0.5203    1.0000 </r>
       <r>    0.6498    1.0000 </r>
       <r>    1.2801    1.0000 </r>
       <r>    1.4870    1.0000 </r>
       <r>    1.8268    1.0000 </r>
       <r>    2.5548    1.0000 </r>
       <r>    3.0394    1.0000 </r>
       <r>    3.3902    1.0000 </r>
       <r>    3.5573    1.0000 </r>
       <r>    3.9707    1.0000 </r>
       <r>    4.7093    1.0000 </r>
       <r>    7.6950    0.0000 </r>
       <r>    8.2997    0.0000 </r>
       <r>    8.6250    0.0000 </r>
       <r>    8.7784    0.0000 </r>
       <r>    8.8292    0.0000 </r>
       <r>    9.3235    0.0000 </r>
       <r>    9.3918    0.0000 </r>
       <r>    9.8582    0.0000 </r>
      </set>
      <set comment="kpoint 255">
       <r>   -5.2351    1.0000 </r>
       <r>   -4.7133    1.0000 </r>
       <r>   -2.9856    1.0000 </r>
       <r>   -2.7592    1.0000 </r>
       <r>   -1.2809    1.0000 </r>
       <r>   -1.0688    1.0000 </r>
       <r>    1.1382    1.0000 </r>
       <r>    1.4626    1.0000 </r>
       <r>    1.6535    1.0000 </r>
       <r>    1.9538    1.0000 </r>
       <r>    2.6988    1.0000 </r>
       <r>    2.8411    1.0000 </r>
       <r>    3.0877    1.0000 </r>
       <r>    3.6102    1.0000 </r>
       <r>    3.7360    1.0000 </r>
       <r>    4.4173    1.0000 </r>
       <r>    7.3483    0.0000 </r>
       <r>    7.7203    0.0000 </r>
       <r>    8.2010    0.0000 </r>
       <r>    8.8979    0.0000 </r>
       <r>    9.1159    0.0000 </r>
       <r>    9.3966    0.0000 </r>
       <r>    9.5009    0.0000 </r>
       <r>   10.0431    0.0000 </r>
      </set>
      <set comment="kpoint 256">
       <r>   -5.3595    1.0000 </r>
       <r>   -4.8276    1.0000 </r>
       <r>   -2.4333    1.0000 </r>
       <r>   -2.3209    1.0000 </r>
       <r>   -1.6376    1.0000 </r>
       <r>   -1.5621    1.0000 </r>
       <r>    1.4619    1.0000 </r>
       <r>    1.6510    1.0000 </r>
       <r>    1.6632    1.0000 </r>
       <r>    2.2150    1.0000 </r>
       <r>    2.2461    1.0000 </r>
       <r>    2.4643    1.0000 </r>
       <r>    3.4633    1.0000 </r>
       <r>    3.5428    1.0000 </r>
       <r>    3.9931    1.0000 </r>
       <r>    4.0965    1.0000 </r>
       <r>    6.7674    0.0000 </r>
       <r>    7.1303    0.0000 </r>
       <r>    8.3930    0.0000 </r>
       <r>    8.9501    0.0000 </r>
       <r>    9.0226    0.0000 </r>
       <r>    9.2630    0.0000 </r>
       <r>    9.8273    0.0000 </r>
       <r>    9.8898    0.0000 </r>
      </set>
     </set>
    </set>
   </array>
  </eigenvalues>
  <separator name="orbital magnetization" >
   <v name="MAGDIPOLOUT">      0.00000000      0.00000000      0.00000000</v>
  </separator>
  <dos>
   <i name="efermi">      5.65075828 </i>
   <total>
    <array>
     <dimension dim="1">gridpoints</dimension>
     <dimension dim="2">spin</dimension>
     <field>energy</field>
     <field>total</field>
     <field>integrated</field>
     <set>
      <set comment="spin 1">
       <r>    -6.9709     0.0000     0.0000 </r>
       <r>    -6.9108     0.0000     0.0000 </r>
       <r>    -6.8508     0.0000     0.0000 </r>
       <r>    -6.7907     0.0000     0.0000 </r>
       <r>    -6.7306     0.0000     0.0000 </r>
       <r>    -6.6706     0.0000     0.0000 </r>
       <r>    -6.6105     0.0000     0.0000 </r>
       <r>    -6.5504     0.0000     0.0000 </r>
       <r>    -6.4904     0.0000     0.0000 </r>
       <r>    -6.4303     0.0000     0.0000 </r>
       <r>    -6.3702     0.0000     0.0000 </r>
       <r>    -6.3102     0.0000     0.0000 </r>
       <r>    -6.2501     0.0000     0.0000 </r>
       <r>    -6.1900     0.0000     0.0000 </r>
       <r>    -6.1300     0.5179     0.0311 </r>
       <r>    -6.0699     0.0000     0.0313 </r>
       <r>    -6.0098     1.6240     0.1288 </r>
       <r>    -5.9498    -0.0633     0.1250 </r>
       <r>    -5.8897     0.2088     0.1375 </r>
       <r>    -5.8296     1.3520     0.2187 </r>
       <r>    -5.7696    -0.0080     0.2183 </r>
       <r>    -5.7095     2.0890     0.3437 </r>
       <r>    -5.6494     0.0047     0.3440 </r>
       <r>    -5.5894     3.1165     0.5312 </r>
       <r>    -5.5293     0.0003     0.5313 </r>
       <r>    -5.4692     1.5580     0.6248 </r>
       <r>    -5.4091     0.0000     0.6250 </r>
       <r>    -5.3491     3.2001     0.8172 </r>
       <r>    -5.2890    -0.0816     0.8125 </r>
       <r>    -5.2289     4.5238     1.0842 </r>
       <r>    -5.1689     0.1571     1.0938 </r>
       <r>    -5.1088     1.3507     1.1749 </r>
       <r>    -5.0487     0.2100     1.1875 </r>
       <r>    -4.9887     2.3699     1.3299 </r>
       <r>    -4.9286     1.2718     1.4063 </r>
       <r>    -4.8685     2.8237     1.5759 </r>
       <r>    -4.8085     1.8592     1.6876 </r>
       <r>    -4.7484    -0.0031     1.6875 </r>
       <r>    -4.6883     3.1050     1.8740 </r>
       <r>    -4.6283     2.6383     2.0328 </r>
       <r>    -4.5682     2.0528     2.1561 </r>
       <r>    -4.5081     1.5628     2.2501 </r>
       <r>    -4.4481     3.1169     2.4374 </r>
       <r>    -4.3880     1.2558     2.5129 </r>
       <r>    -4.3279     3.4372     2.7194 </r>
       <r>    -4.2679    -0.0110     2.7188 </r>
       <r>    -4.2078     1.4252     2.8044 </r>
       <r>    -4.1477     4.2596     3.0603 </r>
       <r>    -4.0877     3.5935     3.2762 </r>
       <r>    -4.0276     4.0672     3.5205 </r>
       <r>    -3.9675     3.4506     3.7278 </r>
       <r>    -3.9074     2.6029     3.8843 </r>
       <r>    -3.8474     2.5805     4.0393 </r>
       <r>    -3.7873     2.8294     4.2093 </r>
       <r>    -3.7272     3.2419     4.4041 </r>
       <r>    -3.6672     4.2735     4.6609 </r>
       <r>    -3.6071     2.9788     4.8399 </r>
       <r>    -3.5470     5.5198     5.1716 </r>
       <r>    -3.4870     0.2622     5.1875 </r>
       <r>    -3.4269     1.8623     5.2994 </r>
       <r>    -3.3668     2.4698     5.4478 </r>
       <r>    -3.3068     3.2140     5.6409 </r>
       <r>    -3.2467     3.7114     5.8639 </r>
       <r>    -3.1866     5.9129     6.2192 </r>
       <r>    -3.1266     4.0807     6.4644 </r>
       <r>    -3.0665     1.3436     6.5452 </r>
       <r>    -3.0064     1.7702     6.6515 </r>
       <r>    -2.9464     2.4049     6.7960 </r>
       <r>    -2.8863     0.9581     6.8536 </r>
       <r>    -2.8262     0.3514     6.8747 </r>
       <r>    -2.7662     1.5090     6.9654 </r>
       <r>    -2.7061     1.6163     7.0625 </r>
       <r>    -2.6460     1.3040     7.1408 </r>
       <r>    -2.5860     2.6189     7.2982 </r>
       <r>    -2.5259     3.1324     7.4864 </r>
       <r>    -2.4658     3.2141     7.6796 </r>
       <r>    -2.4057     3.0066     7.8603 </r>
       <r>    -2.3457     1.7093     7.9631 </r>
       <r>    -2.2856     0.6139     8.0000 </r>
       <r>    -2.2255     0.0000     8.0000 </r>
       <r>    -2.1655     0.0000     8.0000 </r>
       <r>    -2.1054     0.0000     8.0000 </r>
       <r>    -2.0453     0.0000     8.0000 </r>
       <r>    -1.9853     0.0000     8.0000 </r>
       <r>    -1.9252     0.0000     8.0000 </r>
       <r>    -1.8651     0.0000     8.0000 </r>
       <r>    -1.8051     0.0000     8.0000 </r>
       <r>    -1.7450     0.0052     8.0003 </r>
       <r>    -1.6849     0.8931     8.0540 </r>
       <r>    -1.6249     3.4723     8.2625 </r>
       <r>    -1.5648     4.1527     8.5120 </r>
       <r>    -1.5047     4.2437     8.7670 </r>
       <r>    -1.4447     1.5890     8.8626 </r>
       <r>    -1.3846     1.2284     8.9365 </r>
       <r>    -1.3245     0.5300     8.9684 </r>
       <r>    -1.2645     1.9307     9.0843 </r>
       <r>    -1.2044     2.4884     9.2338 </r>
       <r>    -1.1443     3.6219     9.4515 </r>
       <r>    -1.0843     5.7383     9.7964 </r>
       <r>    -1.0242     4.4382    10.0631 </r>
       <r>    -0.9641     5.7162    10.4065 </r>
       <r>    -0.9041     3.2806    10.6037 </r>
       <r>    -0.8440     6.2272    10.9778 </r>
       <r>    -0.7839     6.7916    11.3859 </r>
       <r>    -0.7238     2.2280    11.5198 </r>
       <r>    -0.6638     1.8559    11.6314 </r>
       <r>    -0.6037     1.9698    11.7498 </r>
       <r>    -0.5436     1.1437    11.8186 </r>
       <r>    -0.4836     4.4155    12.0838 </r>
       <r>    -0.4235     4.7715    12.3705 </r>
       <r>    -0.3634     2.5654    12.5247 </r>
       <r>    -0.3034     1.1384    12.5931 </r>
       <r>    -0.2433     0.5301    12.6250 </r>
       <r>    -0.1832     0.2587    12.6405 </r>
       <r>    -0.1232     1.5311    12.7326 </r>
       <r>    -0.0631     1.1760    12.8033 </r>
       <r>    -0.0030     1.1140    12.8702 </r>
       <r>     0.0570     4.0258    13.1120 </r>
       <r>     0.1171     3.3183    13.3115 </r>
       <r>     0.1772     1.6426    13.4103 </r>
       <r>     0.2372     2.8730    13.5828 </r>
       <r>     0.2973     1.2216    13.6562 </r>
       <r>     0.3574     0.0006    13.6563 </r>
       <r>     0.4174     1.1163    13.7233 </r>
       <r>     0.4775     0.4430    13.7500 </r>
       <r>     0.5376     0.0750    13.7545 </r>
       <r>     0.5976     1.5387    13.8469 </r>
       <r>     0.6577     2.9302    14.0230 </r>
       <r>     0.7178     3.6047    14.2396 </r>
       <r>     0.7779     1.5992    14.3357 </r>
       <r>     0.8379     0.1342    14.3438 </r>
       <r>     0.8980     0.0000    14.3438 </r>
       <r>     0.9581     0.0000    14.3438 </r>
       <r>     1.0181     0.0005    14.3438 </r>
       <r>     1.0782     1.1081    14.4103 </r>
       <r>     1.1383     1.4388    14.4968 </r>
       <r>     1.1983     0.5740    14.5313 </r>
       <r>     1.2584     0.8155    14.5802 </r>
       <r>     1.3185     1.5160    14.6714 </r>
       <r>     1.3785     4.2958    14.9294 </r>
       <r>     1.4386     2.4777    15.0783 </r>
       <r>     1.4987     7.5741    15.5333 </r>
       <r>     1.5587     2.0411    15.6563 </r>
       <r>     1.6188     0.8043    15.7046 </r>
       <r>     1.6789     4.9007    15.9990 </r>
       <r>     1.7389     2.9547    16.1767 </r>
       <r>     1.7990     5.5469    16.5100 </r>
       <r>     1.8591     6.3783    16.8933 </r>
       <r>     1.9191     2.9971    17.0734 </r>
       <r>     1.9792     4.8454    17.3645 </r>
       <r>     2.0393     5.4640    17.6928 </r>
       <r>     2.0993     4.1038    17.9394 </r>
       <r>     2.1594     2.5813    18.0946 </r>
       <r>     2.2195     5.0196    18.3962 </r>
       <r>     2.2796     5.4766    18.7252 </r>
       <r>     2.3396     3.1922    18.9172 </r>
       <r>     2.3997     3.6795    19.1383 </r>
       <r>     2.4598     4.2288    19.3924 </r>
       <r>     2.5198     3.8102    19.6214 </r>
       <r>     2.5799     4.3559    19.8832 </r>
       <r>     2.6400     4.8674    20.1756 </r>
       <r>     2.7000     5.5477    20.5090 </r>
       <r>     2.7601     9.0211    21.0510 </r>
       <r>     2.8202     5.3597    21.3731 </r>
       <r>     2.8802     7.4899    21.8232 </r>
       <r>     2.9403     2.8025    21.9917 </r>
       <r>     3.0004     1.8290    22.1016 </r>
       <r>     3.0604     8.7527    22.6274 </r>
       <r>     3.1205     8.1364    23.1165 </r>
       <r>     3.1806     4.4578    23.3846 </r>
       <r>     3.2406     8.5296    23.8971 </r>
       <r>     3.3007     5.2285    24.2115 </r>
       <r>     3.3608     1.4203    24.2969 </r>
       <r>     3.4208     3.4619    24.5048 </r>
       <r>     3.4809     6.5640    24.8992 </r>
       <r>     3.5410     7.3811    25.3427 </r>
       <r>     3.6010    10.7645    25.9897 </r>
       <r>     3.6611     6.6664    26.3903 </r>
       <r>     3.7212     3.6921    26.6122 </r>
       <r>     3.7812     4.6292    26.8902 </r>
       <r>     3.8413     2.4632    27.0383 </r>
       <r>     3.9014     1.9550    27.1559 </r>
       <r>     3.9615     2.7946    27.3238 </r>
       <r>     4.0215     7.3813    27.7673 </r>
       <r>     4.0816     6.5194    28.1591 </r>
       <r>     4.1417     6.1326    28.5277 </r>
       <r>     4.2017     5.3695    28.8503 </r>
       <r>     4.2618     5.9100    29.2054 </r>
       <r>     4.3219     3.3150    29.4046 </r>
       <r>     4.3819     4.6547    29.6843 </r>
       <r>     4.4420     2.1701    29.8149 </r>
       <r>     4.5021     2.4251    29.9606 </r>
       <r>     4.5621     3.3211    30.1602 </r>
       <r>     4.6222     4.1657    30.4104 </r>
       <r>     4.6823     6.4737    30.7994 </r>
       <r>     4.7423     2.8726    30.9720 </r>
       <r>     4.8024     2.1929    31.1038 </r>
       <r>     4.8625     0.7913    31.1514 </r>
       <r>     4.9225     0.5807    31.1863 </r>
       <r>     4.9826     1.3234    31.2658 </r>
       <r>     5.0427     2.6770    31.4267 </r>
       <r>     5.1027     2.1826    31.5578 </r>
       <r>     5.1628     1.9246    31.6734 </r>
       <r>     5.2229     1.5304    31.7654 </r>
       <r>     5.2829     0.6539    31.8047 </r>
       <r>     5.3430     0.5198    31.8360 </r>
       <r>     5.4031     1.0506    31.8991 </r>
       <r>     5.4632     0.1041    31.9054 </r>
       <r>     5.5232     1.1888    31.9768 </r>
       <r>     5.5833    -0.0035    31.9766 </r>
       <r>     5.6434     0.3174    31.9956 </r>
       <r>     5.7034     0.0722    32.0000 </r>
       <r>     5.7635     0.0000    32.0000 </r>
       <r>     5.8236     0.0000    32.0000 </r>
       <r>     5.8836     0.0000    32.0000 </r>
       <r>     5.9437     0.0000    32.0000 </r>
       <r>     6.0038     0.0000    32.0000 </r>
       <r>     6.0638     0.0000    32.0000 </r>
       <r>     6.1239     0.0000    32.0000 </r>
       <r>     6.1840     0.0000    32.0000 </r>
       <r>     6.2440     0.0000    32.0000 </r>
       <r>     6.3041     0.1274    32.0077 </r>
       <r>     6.3642     1.2040    32.0800 </r>
       <r>     6.4242     1.4687    32.1682 </r>
       <r>     6.4843     0.1708    32.1785 </r>
       <r>     6.5444     1.7118    32.2814 </r>
       <r>     6.6044     0.2601    32.2970 </r>
       <r>     6.6645     1.0481    32.3600 </r>
       <r>     6.7246     1.2594    32.4357 </r>
       <r>     6.7846     3.6597    32.6555 </r>
       <r>     6.8447     2.4852    32.8049 </r>
       <r>     6.9048     2.5072    32.9556 </r>
       <r>     6.9649     0.9722    33.0140 </r>
       <r>     7.0249     0.3524    33.0352 </r>
       <r>     7.0850     4.9433    33.3322 </r>
       <r>     7.1451     5.0884    33.6380 </r>
       <r>     7.2051     2.2364    33.7724 </r>
       <r>     7.2652     2.4775    33.9212 </r>
       <r>     7.3253     1.9878    34.0407 </r>
       <r>     7.3853     4.2804    34.2978 </r>
       <r>     7.4454     2.5714    34.4524 </r>
       <r>     7.5055     4.7812    34.7397 </r>
       <r>     7.5655     4.7349    35.0243 </r>
       <r>     7.6256     3.7159    35.2476 </r>
       <r>     7.6857     3.4801    35.4568 </r>
       <r>     7.7457     6.4083    35.8418 </r>
       <r>     7.8058    10.8733    36.4952 </r>
       <r>     7.8659     9.8909    37.0897 </r>
       <r>     7.9259     4.7839    37.3773 </r>
       <r>     7.9860     4.0387    37.6201 </r>
       <r>     8.0461     4.7962    37.9083 </r>
       <r>     8.1061     5.4455    38.2357 </r>
       <r>     8.1662     4.7770    38.5227 </r>
       <r>     8.2263     2.4741    38.6715 </r>
       <r>     8.2863     8.5117    39.1829 </r>
       <r>     8.3464     7.2775    39.6203 </r>
       <r>     8.4065     4.5780    39.8954 </r>
       <r>     8.4665     2.4121    40.0404 </r>
       <r>     8.5266     1.8255    40.1502 </r>
       <r>     8.5867     5.8488    40.5016 </r>
       <r>     8.6468     4.2472    40.7569 </r>
       <r>     8.7068     2.1880    40.8885 </r>
       <r>     8.7669     4.5630    41.1626 </r>
       <r>     8.8270     7.4057    41.6076 </r>
       <r>     8.8870    10.0004    42.2085 </r>
       <r>     8.9471     9.0155    42.7503 </r>
       <r>     9.0072     8.6014    43.2670 </r>
       <r>     9.0672     7.6026    43.7239 </r>
       <r>     9.1273     5.3408    44.0450 </r>
       <r>     9.1874     2.6569    44.2047 </r>
       <r>     9.2474     4.5007    44.4751 </r>
       <r>     9.3075     4.9435    44.7721 </r>
       <r>     9.3676     6.4841    45.1617 </r>
       <r>     9.4276     6.8412    45.5728 </r>
       <r>     9.4877     5.5933    45.9089 </r>
       <r>     9.5478     6.0335    46.2715 </r>
       <r>     9.6078     4.5189    46.5432 </r>
       <r>     9.6679     1.4859    46.6325 </r>
       <r>     9.7280     1.8951    46.7464 </r>
       <r>     9.7880     3.3886    46.9499 </r>
       <r>     9.8481     3.6778    47.1710 </r>
       <r>     9.9082     3.2631    47.3671 </r>
       <r>     9.9682     2.0174    47.4883 </r>
       <r>    10.0283     4.5844    47.7639 </r>
       <r>    10.0884     2.7877    47.9315 </r>
       <r>    10.1485     0.6189    47.9688 </r>
       <r>    10.2085     0.3893    47.9922 </r>
       <r>    10.2686     0.1295    48.0000 </r>
       <r>    10.3287     0.0000    48.0000 </r>
       <r>    10.3887     0.0000    48.0000 </r>
       <r>    10.4488     0.0000    48.0000 </r>
       <r>    10.5089     0.0000    48.0000 </r>
       <r>    10.5689     0.0000    48.0000 </r>
       <r>    10.6290     0.0000    48.0000 </r>
       <r>    10.6891     0.0000    48.0000 </r>
       <r>    10.7491     0.0000    48.0000 </r>
       <r>    10.8092     0.0000    48.0000 </r>
       <r>    10.8693     0.0000    48.0000 </r>
       <r>    10.9293     0.0000    48.0000 </r>
       <r>    10.9894     0.0000    48.0000 </r>
       <r>    11.0495     0.0000    48.0000 </r>
      </set>
     </set>
    </array>
   </total>
  </dos>
 </calculation>
 <structure name="finalpos" >
  <crystal>
   <varray name="basis" >
    <v>       5.46906415       0.00000000       0.00000000 </v>
    <v>       0.00000000       5.46906415       0.00000000 </v>
    <v>       0.00000000       0.00000000       5.46906415 </v>
   </varray>
   <i name="volume">    163.58333295 </i>
   <varray name="rec_basis" >
    <v>       0.18284664       0.00000000       0.00000000 </v>
    <v>       0.00000000       0.18284664       0.00000000 </v>
    <v>       0.00000000       0.00000000       0.18284664 </v>
   </varray>
  </crystal>
  <varray name="positions" >
   <v>       0.13705601       0.00626410       0.08895627 </v>
   <v>       0.37577004       0.27053293       0.33037674 </v>
   <v>       0.63406999       0.49398868       0.06802337 </v>
   <v>       0.87267378       0.75838981       0.32380966 </v>
   <v>       0.61204955       0.00460319       0.57492200 </v>
   <v>       0.88227920       0.23263954       0.82088166 </v>
   <v>       0.11914328       0.50969950       0.57485432 </v>
   <v>       0.38418945       0.75568911       0.84418443 </v>
  </varray>
 </structure>
</modeling>
