<?xml version="1.0" encoding="ISO-8859-1"?>
<modeling>
 <generator>
  <i name="program" type="string">vasp </i>
  <i name="version" type="string">5.4.1  </i>
  <i name="subversion" type="string">24Jun15 (build Jul  8 2015 13:29:37) complex                          parallel </i>
  <i name="platform" type="string">FX10FRT </i>
  <i name="date" type="string">2016 02 20 </i>
  <i name="time" type="string">07:12:10 </i>
 </generator>
 <incar>
  <i type="string" name="PREC">accurate</i>
  <i type="string" name="ALGO"> Normal</i>
  <i type="int" name="ISPIN">     1</i>
  <i type="int" name="IBRION">    -1</i>
  <i name="EDIFF">      0.00010000</i>
  <i type="int" name="NSW">     0</i>
  <i type="int" name="ISIF">     2</i>
  <i name="ENCUT">    400.00000000</i>
  <i type="int" name="ISMEAR">     2</i>
  <i name="SIGMA">      0.10000000</i>
  <i type="int" name="NWRITE">     1</i>
  <v type="int" name="KPOINT_BSE">    -1     0     0     0</v>
 </incar>
 <kpoints>
  <generation param="Monkhorst-Pack">
   <v type="int" name="divisions">      13       13       13 </v>
   <v name="usershift">      0.00000000       0.00000000       0.00000000 </v>
   <v name="genvec1">      0.07692308       0.00000000       0.00000000 </v>
   <v name="genvec2">      0.00000000       0.07692308       0.00000000 </v>
   <v name="genvec3">      0.00000000       0.00000000       0.07692308 </v>
   <v name="shift">      0.00000000       0.00000000       0.00000000 </v>
  </generation>
  <varray name="kpointlist" >
   <v>       0.00000000       0.00000000       0.00000000 </v>
   <v>       0.07692308       0.00000000       0.00000000 </v>
   <v>       0.15384615       0.00000000       0.00000000 </v>
   <v>       0.23076923       0.00000000       0.00000000 </v>
   <v>       0.30769231       0.00000000       0.00000000 </v>
   <v>       0.38461538       0.00000000       0.00000000 </v>
   <v>       0.46153846       0.00000000       0.00000000 </v>
   <v>       0.00000000       0.07692308       0.00000000 </v>
   <v>       0.07692308       0.07692308       0.00000000 </v>
   <v>       0.15384615       0.07692308       0.00000000 </v>
   <v>       0.23076923       0.07692308       0.00000000 </v>
   <v>       0.30769231       0.07692308       0.00000000 </v>
   <v>       0.38461538       0.07692308       0.00000000 </v>
   <v>       0.46153846       0.07692308       0.00000000 </v>
   <v>       0.00000000       0.15384615       0.00000000 </v>
   <v>       0.07692308       0.15384615       0.00000000 </v>
   <v>       0.15384615       0.15384615       0.00000000 </v>
   <v>       0.23076923       0.15384615       0.00000000 </v>
   <v>       0.30769231       0.15384615       0.00000000 </v>
   <v>       0.38461538       0.15384615       0.00000000 </v>
   <v>       0.46153846       0.15384615       0.00000000 </v>
   <v>       0.00000000       0.23076923       0.00000000 </v>
   <v>       0.07692308       0.23076923       0.00000000 </v>
   <v>       0.15384615       0.23076923       0.00000000 </v>
   <v>       0.23076923       0.23076923       0.00000000 </v>
   <v>       0.30769231       0.23076923       0.00000000 </v>
   <v>       0.38461538       0.23076923       0.00000000 </v>
   <v>       0.46153846       0.23076923       0.00000000 </v>
   <v>       0.00000000       0.30769231       0.00000000 </v>
   <v>       0.07692308       0.30769231       0.00000000 </v>
   <v>       0.15384615       0.30769231       0.00000000 </v>
   <v>       0.23076923       0.30769231       0.00000000 </v>
   <v>       0.30769231       0.30769231       0.00000000 </v>
   <v>       0.38461538       0.30769231       0.00000000 </v>
   <v>       0.46153846       0.30769231       0.00000000 </v>
   <v>       0.00000000       0.38461538       0.00000000 </v>
   <v>       0.07692308       0.38461538       0.00000000 </v>
   <v>       0.15384615       0.38461538       0.00000000 </v>
   <v>       0.23076923       0.38461538       0.00000000 </v>
   <v>       0.30769231       0.38461538       0.00000000 </v>
   <v>       0.38461538       0.38461538       0.00000000 </v>
   <v>       0.46153846       0.38461538       0.00000000 </v>
   <v>       0.00000000       0.46153846       0.00000000 </v>
   <v>       0.07692308       0.46153846       0.00000000 </v>
   <v>       0.15384615       0.46153846       0.00000000 </v>
   <v>       0.23076923       0.46153846       0.00000000 </v>
   <v>       0.30769231       0.46153846       0.00000000 </v>
   <v>       0.38461538       0.46153846       0.00000000 </v>
   <v>       0.46153846       0.46153846       0.00000000 </v>
   <v>       0.00000000       0.07692308       0.07692308 </v>
   <v>       0.07692308       0.07692308       0.07692308 </v>
   <v>       0.15384615       0.07692308       0.07692308 </v>
   <v>       0.23076923       0.07692308       0.07692308 </v>
   <v>       0.30769231       0.07692308       0.07692308 </v>
   <v>       0.38461538       0.07692308       0.07692308 </v>
   <v>       0.46153846       0.07692308       0.07692308 </v>
   <v>       0.00000000       0.15384615       0.07692308 </v>
   <v>       0.07692308       0.15384615       0.07692308 </v>
   <v>       0.15384615       0.15384615       0.07692308 </v>
   <v>       0.23076923       0.15384615       0.07692308 </v>
   <v>       0.30769231       0.15384615       0.07692308 </v>
   <v>       0.38461538       0.15384615       0.07692308 </v>
   <v>       0.46153846       0.15384615       0.07692308 </v>
   <v>       0.00000000       0.23076923       0.07692308 </v>
   <v>       0.07692308       0.23076923       0.07692308 </v>
   <v>       0.15384615       0.23076923       0.07692308 </v>
   <v>       0.23076923       0.23076923       0.07692308 </v>
   <v>       0.30769231       0.23076923       0.07692308 </v>
   <v>       0.38461538       0.23076923       0.07692308 </v>
   <v>       0.46153846       0.23076923       0.07692308 </v>
   <v>       0.00000000       0.30769231       0.07692308 </v>
   <v>       0.07692308       0.30769231       0.07692308 </v>
   <v>       0.15384615       0.30769231       0.07692308 </v>
   <v>       0.23076923       0.30769231       0.07692308 </v>
   <v>       0.30769231       0.30769231       0.07692308 </v>
   <v>       0.38461538       0.30769231       0.07692308 </v>
   <v>       0.46153846       0.30769231       0.07692308 </v>
   <v>       0.00000000       0.38461538       0.07692308 </v>
   <v>       0.07692308       0.38461538       0.07692308 </v>
   <v>       0.15384615       0.38461538       0.07692308 </v>
   <v>       0.23076923       0.38461538       0.07692308 </v>
   <v>       0.30769231       0.38461538       0.07692308 </v>
   <v>       0.38461538       0.38461538       0.07692308 </v>
   <v>       0.46153846       0.38461538       0.07692308 </v>
   <v>       0.00000000       0.46153846       0.07692308 </v>
   <v>       0.07692308       0.46153846       0.07692308 </v>
   <v>       0.15384615       0.46153846       0.07692308 </v>
   <v>       0.23076923       0.46153846       0.07692308 </v>
   <v>       0.30769231       0.46153846       0.07692308 </v>
   <v>       0.38461538       0.46153846       0.07692308 </v>
   <v>       0.46153846       0.46153846       0.07692308 </v>
   <v>       0.00000000       0.15384615       0.15384615 </v>
   <v>       0.07692308       0.15384615       0.15384615 </v>
   <v>       0.15384615       0.15384615       0.15384615 </v>
   <v>       0.23076923       0.15384615       0.15384615 </v>
   <v>       0.30769231       0.15384615       0.15384615 </v>
   <v>       0.38461538       0.15384615       0.15384615 </v>
   <v>       0.46153846       0.15384615       0.15384615 </v>
   <v>       0.00000000       0.23076923       0.15384615 </v>
   <v>       0.07692308       0.23076923       0.15384615 </v>
   <v>       0.15384615       0.23076923       0.15384615 </v>
   <v>       0.23076923       0.23076923       0.15384615 </v>
   <v>       0.30769231       0.23076923       0.15384615 </v>
   <v>       0.38461538       0.23076923       0.15384615 </v>
   <v>       0.46153846       0.23076923       0.15384615 </v>
   <v>       0.00000000       0.30769231       0.15384615 </v>
   <v>       0.07692308       0.30769231       0.15384615 </v>
   <v>       0.15384615       0.30769231       0.15384615 </v>
   <v>       0.23076923       0.30769231       0.15384615 </v>
   <v>       0.30769231       0.30769231       0.15384615 </v>
   <v>       0.38461538       0.30769231       0.15384615 </v>
   <v>       0.46153846       0.30769231       0.15384615 </v>
   <v>       0.00000000       0.38461538       0.15384615 </v>
   <v>       0.07692308       0.38461538       0.15384615 </v>
   <v>       0.15384615       0.38461538       0.15384615 </v>
   <v>       0.23076923       0.38461538       0.15384615 </v>
   <v>       0.30769231       0.38461538       0.15384615 </v>
   <v>       0.38461538       0.38461538       0.15384615 </v>
   <v>       0.46153846       0.38461538       0.15384615 </v>
   <v>       0.00000000       0.46153846       0.15384615 </v>
   <v>       0.07692308       0.46153846       0.15384615 </v>
   <v>       0.15384615       0.46153846       0.15384615 </v>
   <v>       0.23076923       0.46153846       0.15384615 </v>
   <v>       0.30769231       0.46153846       0.15384615 </v>
   <v>       0.38461538       0.46153846       0.15384615 </v>
   <v>       0.46153846       0.46153846       0.15384615 </v>
   <v>       0.00000000       0.23076923       0.23076923 </v>
   <v>       0.07692308       0.23076923       0.23076923 </v>
   <v>       0.15384615       0.23076923       0.23076923 </v>
   <v>       0.23076923       0.23076923       0.23076923 </v>
   <v>       0.30769231       0.23076923       0.23076923 </v>
   <v>       0.38461538       0.23076923       0.23076923 </v>
   <v>       0.46153846       0.23076923       0.23076923 </v>
   <v>       0.00000000       0.30769231       0.23076923 </v>
   <v>       0.07692308       0.30769231       0.23076923 </v>
   <v>       0.15384615       0.30769231       0.23076923 </v>
   <v>       0.23076923       0.30769231       0.23076923 </v>
   <v>       0.30769231       0.30769231       0.23076923 </v>
   <v>       0.38461538       0.30769231       0.23076923 </v>
   <v>       0.46153846       0.30769231       0.23076923 </v>
   <v>       0.00000000       0.38461538       0.23076923 </v>
   <v>       0.07692308       0.38461538       0.23076923 </v>
   <v>       0.15384615       0.38461538       0.23076923 </v>
   <v>       0.23076923       0.38461538       0.23076923 </v>
   <v>       0.30769231       0.38461538       0.23076923 </v>
   <v>       0.38461538       0.38461538       0.23076923 </v>
   <v>       0.46153846       0.38461538       0.23076923 </v>
   <v>       0.00000000       0.46153846       0.23076923 </v>
   <v>       0.07692308       0.46153846       0.23076923 </v>
   <v>       0.15384615       0.46153846       0.23076923 </v>
   <v>       0.23076923       0.46153846       0.23076923 </v>
   <v>       0.30769231       0.46153846       0.23076923 </v>
   <v>       0.38461538       0.46153846       0.23076923 </v>
   <v>       0.46153846       0.46153846       0.23076923 </v>
   <v>       0.00000000       0.30769231       0.30769231 </v>
   <v>       0.07692308       0.30769231       0.30769231 </v>
   <v>       0.15384615       0.30769231       0.30769231 </v>
   <v>       0.23076923       0.30769231       0.30769231 </v>
   <v>       0.30769231       0.30769231       0.30769231 </v>
   <v>       0.38461538       0.30769231       0.30769231 </v>
   <v>       0.46153846       0.30769231       0.30769231 </v>
   <v>       0.00000000       0.38461538       0.30769231 </v>
   <v>       0.07692308       0.38461538       0.30769231 </v>
   <v>       0.15384615       0.38461538       0.30769231 </v>
   <v>       0.23076923       0.38461538       0.30769231 </v>
   <v>       0.30769231       0.38461538       0.30769231 </v>
   <v>       0.38461538       0.38461538       0.30769231 </v>
   <v>       0.46153846       0.38461538       0.30769231 </v>
   <v>       0.00000000       0.46153846       0.30769231 </v>
   <v>       0.07692308       0.46153846       0.30769231 </v>
   <v>       0.15384615       0.46153846       0.30769231 </v>
   <v>       0.23076923       0.46153846       0.30769231 </v>
   <v>       0.30769231       0.46153846       0.30769231 </v>
   <v>       0.38461538       0.46153846       0.30769231 </v>
   <v>       0.46153846       0.46153846       0.30769231 </v>
   <v>       0.00000000       0.38461538       0.38461538 </v>
   <v>       0.07692308       0.38461538       0.38461538 </v>
   <v>       0.15384615       0.38461538       0.38461538 </v>
   <v>       0.23076923       0.38461538       0.38461538 </v>
   <v>       0.30769231       0.38461538       0.38461538 </v>
   <v>       0.38461538       0.38461538       0.38461538 </v>
   <v>       0.46153846       0.38461538       0.38461538 </v>
   <v>       0.00000000       0.46153846       0.38461538 </v>
   <v>       0.07692308       0.46153846       0.38461538 </v>
   <v>       0.15384615       0.46153846       0.38461538 </v>
   <v>       0.23076923       0.46153846       0.38461538 </v>
   <v>       0.30769231       0.46153846       0.38461538 </v>
   <v>       0.38461538       0.46153846       0.38461538 </v>
   <v>       0.46153846       0.46153846       0.38461538 </v>
   <v>       0.00000000       0.46153846       0.46153846 </v>
   <v>       0.07692308       0.46153846       0.46153846 </v>
   <v>       0.15384615       0.46153846       0.46153846 </v>
   <v>       0.23076923       0.46153846       0.46153846 </v>
   <v>       0.30769231       0.46153846       0.46153846 </v>
   <v>       0.38461538       0.46153846       0.46153846 </v>
   <v>       0.46153846       0.46153846       0.46153846 </v>
  </varray>
  <varray name="weights" >
   <v>       0.00045517 </v>
   <v>       0.00091033 </v>
   <v>       0.00091033 </v>
   <v>       0.00091033 </v>
   <v>       0.00091033 </v>
   <v>       0.00091033 </v>
   <v>       0.00091033 </v>
   <v>       0.00182066 </v>
   <v>       0.00364133 </v>
   <v>       0.00364133 </v>
   <v>       0.00364133 </v>
   <v>       0.00364133 </v>
   <v>       0.00364133 </v>
   <v>       0.00364133 </v>
   <v>       0.00182066 </v>
   <v>       0.00364133 </v>
   <v>       0.00364133 </v>
   <v>       0.00364133 </v>
   <v>       0.00364133 </v>
   <v>       0.00364133 </v>
   <v>       0.00364133 </v>
   <v>       0.00182066 </v>
   <v>       0.00364133 </v>
   <v>       0.00364133 </v>
   <v>       0.00364133 </v>
   <v>       0.00364133 </v>
   <v>       0.00364133 </v>
   <v>       0.00364133 </v>
   <v>       0.00182066 </v>
   <v>       0.00364133 </v>
   <v>       0.00364133 </v>
   <v>       0.00364133 </v>
   <v>       0.00364133 </v>
   <v>       0.00364133 </v>
   <v>       0.00364133 </v>
   <v>       0.00182066 </v>
   <v>       0.00364133 </v>
   <v>       0.00364133 </v>
   <v>       0.00364133 </v>
   <v>       0.00364133 </v>
   <v>       0.00364133 </v>
   <v>       0.00364133 </v>
   <v>       0.00182066 </v>
   <v>       0.00364133 </v>
   <v>       0.00364133 </v>
   <v>       0.00364133 </v>
   <v>       0.00364133 </v>
   <v>       0.00364133 </v>
   <v>       0.00364133 </v>
   <v>       0.00182066 </v>
   <v>       0.00364133 </v>
   <v>       0.00364133 </v>
   <v>       0.00364133 </v>
   <v>       0.00364133 </v>
   <v>       0.00364133 </v>
   <v>       0.00364133 </v>
   <v>       0.00364133 </v>
   <v>       0.00728266 </v>
   <v>       0.00728266 </v>
   <v>       0.00728266 </v>
   <v>       0.00728266 </v>
   <v>       0.00728266 </v>
   <v>       0.00728266 </v>
   <v>       0.00364133 </v>
   <v>       0.00728266 </v>
   <v>       0.00728266 </v>
   <v>       0.00728266 </v>
   <v>       0.00728266 </v>
   <v>       0.00728266 </v>
   <v>       0.00728266 </v>
   <v>       0.00364133 </v>
   <v>       0.00728266 </v>
   <v>       0.00728266 </v>
   <v>       0.00728266 </v>
   <v>       0.00728266 </v>
   <v>       0.00728266 </v>
   <v>       0.00728266 </v>
   <v>       0.00364133 </v>
   <v>       0.00728266 </v>
   <v>       0.00728266 </v>
   <v>       0.00728266 </v>
   <v>       0.00728266 </v>
   <v>       0.00728266 </v>
   <v>       0.00728266 </v>
   <v>       0.00364133 </v>
   <v>       0.00728266 </v>
   <v>       0.00728266 </v>
   <v>       0.00728266 </v>
   <v>       0.00728266 </v>
   <v>       0.00728266 </v>
   <v>       0.00728266 </v>
   <v>       0.00182066 </v>
   <v>       0.00364133 </v>
   <v>       0.00364133 </v>
   <v>       0.00364133 </v>
   <v>       0.00364133 </v>
   <v>       0.00364133 </v>
   <v>       0.00364133 </v>
   <v>       0.00364133 </v>
   <v>       0.00728266 </v>
   <v>       0.00728266 </v>
   <v>       0.00728266 </v>
   <v>       0.00728266 </v>
   <v>       0.00728266 </v>
   <v>       0.00728266 </v>
   <v>       0.00364133 </v>
   <v>       0.00728266 </v>
   <v>       0.00728266 </v>
   <v>       0.00728266 </v>
   <v>       0.00728266 </v>
   <v>       0.00728266 </v>
   <v>       0.00728266 </v>
   <v>       0.00364133 </v>
   <v>       0.00728266 </v>
   <v>       0.00728266 </v>
   <v>       0.00728266 </v>
   <v>       0.00728266 </v>
   <v>       0.00728266 </v>
   <v>       0.00728266 </v>
   <v>       0.00364133 </v>
   <v>       0.00728266 </v>
   <v>       0.00728266 </v>
   <v>       0.00728266 </v>
   <v>       0.00728266 </v>
   <v>       0.00728266 </v>
   <v>       0.00728266 </v>
   <v>       0.00182066 </v>
   <v>       0.00364133 </v>
   <v>       0.00364133 </v>
   <v>       0.00364133 </v>
   <v>       0.00364133 </v>
   <v>       0.00364133 </v>
   <v>       0.00364133 </v>
   <v>       0.00364133 </v>
   <v>       0.00728266 </v>
   <v>       0.00728266 </v>
   <v>       0.00728266 </v>
   <v>       0.00728266 </v>
   <v>       0.00728266 </v>
   <v>       0.00728266 </v>
   <v>       0.00364133 </v>
   <v>       0.00728266 </v>
   <v>       0.00728266 </v>
   <v>       0.00728266 </v>
   <v>       0.00728266 </v>
   <v>       0.00728266 </v>
   <v>       0.00728266 </v>
   <v>       0.00364133 </v>
   <v>       0.00728266 </v>
   <v>       0.00728266 </v>
   <v>       0.00728266 </v>
   <v>       0.00728266 </v>
   <v>       0.00728266 </v>
   <v>       0.00728266 </v>
   <v>       0.00182066 </v>
   <v>       0.00364133 </v>
   <v>       0.00364133 </v>
   <v>       0.00364133 </v>
   <v>       0.00364133 </v>
   <v>       0.00364133 </v>
   <v>       0.00364133 </v>
   <v>       0.00364133 </v>
   <v>       0.00728266 </v>
   <v>       0.00728266 </v>
   <v>       0.00728266 </v>
   <v>       0.00728266 </v>
   <v>       0.00728266 </v>
   <v>       0.00728266 </v>
   <v>       0.00364133 </v>
   <v>       0.00728266 </v>
   <v>       0.00728266 </v>
   <v>       0.00728266 </v>
   <v>       0.00728266 </v>
   <v>       0.00728266 </v>
   <v>       0.00728266 </v>
   <v>       0.00182066 </v>
   <v>       0.00364133 </v>
   <v>       0.00364133 </v>
   <v>       0.00364133 </v>
   <v>       0.00364133 </v>
   <v>       0.00364133 </v>
   <v>       0.00364133 </v>
   <v>       0.00364133 </v>
   <v>       0.00728266 </v>
   <v>       0.00728266 </v>
   <v>       0.00728266 </v>
   <v>       0.00728266 </v>
   <v>       0.00728266 </v>
   <v>       0.00728266 </v>
   <v>       0.00182066 </v>
   <v>       0.00364133 </v>
   <v>       0.00364133 </v>
   <v>       0.00364133 </v>
   <v>       0.00364133 </v>
   <v>       0.00364133 </v>
   <v>       0.00364133 </v>
  </varray>
 </kpoints>
 <parameters>
  <separator name="general" >
   <i type="string" name="SYSTEM">unknown system</i>
   <i type="logical" name="LCOMPAT"> F  </i>
  </separator>
  <separator name="electronic" >
   <i type="string" name="PREC">accura</i>
   <i name="ENMAX">    400.00000000</i>
   <i name="ENAUG">    322.06900000</i>
   <i name="EDIFF">      0.00010000</i>
   <i type="int" name="IALGO">    38</i>
   <i type="int" name="IWAVPR">    10</i>
   <i type="int" name="NBANDS">    16</i>
   <i name="NELECT">     16.00000000</i>
   <i type="int" name="TURBO">     0</i>
   <i type="int" name="IRESTART">     0</i>
   <i type="int" name="NREBOOT">     0</i>
   <i type="int" name="NMIN">     0</i>
   <i name="EREF">      0.00000000</i>
   <separator name="electronic smearing" >
    <i type="int" name="ISMEAR">     2</i>
    <i name="SIGMA">      0.10000000</i>
    <i name="KSPACING">      0.50000000</i>
    <i type="logical" name="KGAMMA"> T  </i>
   </separator>
   <separator name="electronic projectors" >
    <i type="logical" name="LREAL"> F  </i>
    <v name="ROPT">      0.00000000</v>
    <i type="int" name="LMAXPAW">  -100</i>
    <i type="int" name="LMAXMIX">     2</i>
    <i type="logical" name="NLSPLINE"> F  </i>
   </separator>
   <separator name="electronic startup" >
    <i type="int" name="ISTART">     0</i>
    <i type="int" name="ICHARG">     2</i>
    <i type="int" name="INIWAV">     1</i>
   </separator>
   <separator name="electronic spin" >
    <i type="int" name="ISPIN">     1</i>
    <i type="logical" name="LNONCOLLINEAR"> F  </i>
    <v name="MAGMOM">      1.00000000      1.00000000      1.00000000      1.00000000</v>
    <i name="NUPDOWN">     -1.00000000</i>
    <i type="logical" name="LSORBIT"> F  </i>
    <v name="SAXIS">      0.00000000      0.00000000      1.00000000</v>
    <i type="logical" name="LSPIRAL"> F  </i>
    <v name="QSPIRAL">      0.00000000      0.00000000      0.00000000</v>
    <i type="logical" name="LZEROZ"> F  </i>
   </separator>
   <separator name="electronic exchange-correlation" >
    <i type="logical" name="LASPH"> F  </i>
    <i type="logical" name="LMETAGGA"> F  </i>
   </separator>
   <separator name="electronic convergence" >
    <i type="int" name="NELM">    60</i>
    <i type="int" name="NELMDL">    -5</i>
    <i type="int" name="NELMIN">     2</i>
    <i name="ENINI">    400.00000000</i>
    <separator name="electronic convergence detail" >
     <i type="logical" name="LDIAG"> T  </i>
     <i type="logical" name="LSUBROT"> F  </i>
     <i name="WEIMIN">      0.00000000</i>
     <i name="EBREAK">      0.00000156</i>
     <i name="DEPER">      0.30000000</i>
     <i type="int" name="NRMM">     4</i>
     <i name="TIME">      0.40000000</i>
    </separator>
   </separator>
   <separator name="electronic mixer" >
    <i name="AMIX">      0.40000000</i>
    <i name="BMIX">      1.00000000</i>
    <i name="AMIN">      0.10000000</i>
    <i name="AMIX_MAG">      1.60000000</i>
    <i name="BMIX_MAG">      1.00000000</i>
    <separator name="electronic mixer details" >
     <i type="int" name="IMIX">     4</i>
     <i type="logical" name="MIXFIRST"> F  </i>
     <i type="int" name="MAXMIX">   -45</i>
     <i name="WC">    100.00000000</i>
     <i type="int" name="INIMIX">     1</i>
     <i type="int" name="MIXPRE">     1</i>
     <i type="int" name="MREMOVE">     5</i>
    </separator>
   </separator>
   <separator name="electronic dipolcorrection" >
    <i type="logical" name="LDIPOL"> F  </i>
    <i type="logical" name="LMONO"> F  </i>
    <i type="int" name="IDIPOL">     0</i>
    <i name="EPSILON">      1.00000000</i>
    <v name="DIPOL">   -100.00000000   -100.00000000   -100.00000000</v>
    <i name="EFIELD">      0.00000000</i>
   </separator>
  </separator>
  <separator name="grids" >
   <i type="int" name="NGX">    24</i>
   <i type="int" name="NGY">    28</i>
   <i type="int" name="NGZ">    28</i>
   <i type="int" name="NGXF">    48</i>
   <i type="int" name="NGYF">    56</i>
   <i type="int" name="NGZF">    56</i>
   <i type="logical" name="ADDGRID"> F  </i>
  </separator>
  <separator name="ionic" >
   <i type="int" name="NSW">     0</i>
   <i type="int" name="IBRION">    -1</i>
   <i type="int" name="ISIF">     2</i>
   <i name="PSTRESS">      0.00000000</i>
   <i name="EDIFFG">      0.00100000</i>
   <i type="int" name="NFREE">     0</i>
   <i name="POTIM">      0.50000000</i>
   <i name="SMASS">     -3.00000000</i>
   <i name="SCALEE">      1.00000000</i>
  </separator>
  <separator name="ionic md" >
   <i name="TEBEG">      0.00010000</i>
   <i name="TEEND">      0.00010000</i>
   <i type="int" name="NBLOCK">     1</i>
   <i type="int" name="KBLOCK">     1</i>
   <i type="int" name="NPACO">   256</i>
   <i name="APACO">     16.00000000</i>
  </separator>
  <separator name="symmetry" >
   <i type="int" name="ISYM">     2</i>
   <i name="SYMPREC">      0.00001000</i>
  </separator>
  <separator name="dos" >
   <i type="logical" name="LORBIT"> F  </i>
   <v name="RWIGS">     -1.00000000</v>
   <i type="int" name="NEDOS">   301</i>
   <i name="EMIN">     10.00000000</i>
   <i name="EMAX">    -10.00000000</i>
   <i name="EFERMI">      0.00000000</i>
  </separator>
  <separator name="writing" >
   <i type="int" name="NWRITE">     1</i>
   <i type="logical" name="LWAVE"> T  </i>
   <i type="logical" name="LCHARG"> T  </i>
   <i type="logical" name="LPARD"> F  </i>
   <i type="logical" name="LVTOT"> F  </i>
   <i type="logical" name="LVHAR"> F  </i>
   <i type="logical" name="LELF"> F  </i>
   <i type="logical" name="LOPTICS"> F  </i>
   <v name="STM">      0.00000000      0.00000000      0.00000000      0.00000000      0.00000000      0.00000000      0.00000000</v>
  </separator>
  <separator name="performance" >
   <i type="int" name="NPAR">     8</i>
   <i type="int" name="NSIM">     4</i>
   <i type="int" name="NBLK">    -1</i>
   <i type="logical" name="LPLANE"> T  </i>
   <i type="logical" name="LSCALAPACK"> T  </i>
   <i type="logical" name="LSCAAWARE"> F  </i>
   <i type="logical" name="LSCALU"> F  </i>
   <i type="logical" name="LASYNC"> F  </i>
   <i type="logical" name="LORBITALREAL"> F  </i>
  </separator>
  <separator name="miscellaneous" >
   <i type="int" name="IDIOT">     3</i>
   <i type="logical" name="LMUSIC"> F  </i>
   <v name="POMASS">     28.08500000</v>
   <v name="DARWINR">      0.00000000</v>
   <v name="DARWINV">      1.00000000</v>
   <i type="logical" name="LCORR"> T  </i>
  </separator>
  <i type="logical" name="GGA_COMPAT"> T  </i>
  <i type="logical" name="LBERRY"> F  </i>
  <i type="int" name="ICORELEVEL">     0</i>
  <i type="logical" name="LDAU"> F  </i>
  <i type="int" name="I_CONSTRAINED_M">     0</i>
  <separator name="electronic exchange-correlation" >
   <i type="string" name="GGA">--</i>
   <i type="int" name="VOSKOWN">     0</i>
   <i type="logical" name="LHFCALC"> F  </i>
   <i type="string" name="PRECFOCK"></i>
   <i type="logical" name="LSYMGRAD"> F  </i>
   <i type="logical" name="LHFONE"> F  </i>
   <i type="logical" name="LRHFCALC"> F  </i>
   <i type="logical" name="LTHOMAS"> F  </i>
   <i type="logical" name="LMODELHF"> F  </i>
   <i name="ENCUT4O">     -1.00000000</i>
   <i type="int" name="EXXOEP">     0</i>
   <i type="int" name="FOURORBIT">     0</i>
   <i name="AEXX">      0.00000000</i>
   <i name="HFALPHA">      0.00000000</i>
   <i name="MCALPHA">      0.00000000</i>
   <i name="ALDAX">      1.00000000</i>
   <i name="AGGAX">      1.00000000</i>
   <i name="ALDAC">      1.00000000</i>
   <i name="AGGAC">      1.00000000</i>
   <i type="int" name="NKREDX">     1</i>
   <i type="int" name="NKREDY">     1</i>
   <i type="int" name="NKREDZ">     1</i>
   <i type="logical" name="SHIFTRED"> F  </i>
   <i type="logical" name="ODDONLY"> F  </i>
   <i type="logical" name="EVENONLY"> F  </i>
   <i type="int" name="LMAXFOCK">     0</i>
   <i type="int" name="NMAXFOCKAE">     0</i>
   <i type="logical" name="LFOCKAEDFT"> F  </i>
   <i name="HFSCREEN">      0.00000000</i>
   <i name="HFSCREENC">      0.00000000</i>
   <i type="int" name="NBANDSGWLOW">     0</i>
  </separator>
  <separator name="vdW DFT" >
   <i type="logical" name="LUSE_VDW"> F  </i>
   <i name="Zab_VDW">     -0.84910000</i>
   <i name="PARAM1">      0.12340000</i>
   <i name="PARAM2">      1.00000000</i>
   <i name="PARAM3">      0.00000000</i>
  </separator>
  <separator name="model GW" >
   <i type="int" name="MODEL_GW">     0</i>
   <i name="MODEL_EPS0">      8.25149203</i>
   <i name="MODEL_ALPHA">      1.00000000</i>
  </separator>
  <separator name="linear response parameters" >
   <i type="logical" name="LEPSILON"> F  </i>
   <i type="logical" name="LRPA"> F  </i>
   <i type="logical" name="LNABLA"> F  </i>
   <i type="logical" name="LVEL"> F  </i>
   <i type="int" name="KINTER">     0</i>
   <i name="CSHIFT">      0.10000000</i>
   <i name="OMEGAMAX">     -1.00000000</i>
   <i name="DEG_THRESHOLD">      0.00200000</i>
  </separator>
  <separator name="orbital magnetization" >
   <i type="logical" name="NUCIND"> F  </i>
   <v name="MAGPOS">      0.00000000      0.00000000      0.00000000</v>
   <i type="logical" name="LNICSALL"> T  </i>
   <i type="logical" name="ORBITALMAG"> F  </i>
   <i type="logical" name="LMAGBLOCH"> F  </i>
   <i type="logical" name="LCHIMAG"> F  </i>
   <i type="logical" name="LGAUGE"> T  </i>
   <i type="int" name="MAGATOM">     0</i>
   <v name="MAGDIPOL">      0.00000000      0.00000000      0.00000000</v>
   <v name="AVECCONST">      0.00000000      0.00000000      0.00000000</v>
  </separator>
  <separator name="response functions" >
   <i type="logical" name="LADDER"> F  </i>
   <i type="logical" name="LFXC"> F  </i>
   <i type="logical" name="LHARTREE"> T  </i>
   <i type="int" name="IBSE">     0</i>
   <v type="int" name="KPOINT">    -1     0     0     0</v>
   <i type="logical" name="LTCTE"> F  </i>
   <i type="logical" name="LTETE"> F  </i>
   <i type="logical" name="LTRIPLET"> F  </i>
   <i type="logical" name="LFXCEPS"> F  </i>
   <i type="logical" name="LFXHEG"> F  </i>
   <i type="int" name="NATURALO">     0</i>
   <i type="logical" name="L2ORDER"> F  </i>
   <i type="logical" name="LUSEW"> F  </i>
   <i name="ENCUTGW">     -2.00000000</i>
   <i name="ENCUTGWSOFT">     -2.00000000</i>
   <i name="ENCUTLF">     -1.00000000</i>
   <i type="int" name="LMAXMP2">    -1</i>
   <i name="SCISSOR">      0.00000000</i>
   <i type="int" name="NOMEGA">     0</i>
   <i type="int" name="NOMEGAR">     0</i>
   <i type="int" name="NBANDSGW">    -1</i>
   <i type="int" name="NBANDSO">    -1</i>
   <i type="int" name="NBANDSV">    -1</i>
   <i type="int" name="NELM">     1</i>
   <i type="int" name="NELMHF">     1</i>
   <i type="int" name="DIM">     3</i>
   <i type="int" name="ANTIRES">     0</i>
   <i name="OMEGAMAX">    -30.00000000</i>
   <i name="OMEGAMIN">    -30.00000000</i>
   <i name="OMEGATL">   -200.00000000</i>
   <i type="int" name="OMEGAGRID">     0</i>
   <i name="CSHIFT">     -0.10000000</i>
   <i type="logical" name="SELFENERGY"> F  </i>
   <i type="logical" name="LSPECTRAL"> F  </i>
   <i type="logical" name="LSPECTRALGW"> F  </i>
   <i type="logical" name="LSINGLES"> F  </i>
   <i type="logical" name="LFERMIGW"> F  </i>
   <i type="logical" name="ODDONLYGW"> F  </i>
   <i type="logical" name="EVENONLYGW"> F  </i>
   <i type="int" name="NKREDLFX">     1</i>
   <i type="int" name="NKREDLFY">     1</i>
   <i type="int" name="NKREDLFZ">     1</i>
   <i type="int" name="MAXMEM">  1800</i>
   <i type="int" name="TELESCOPE">     0</i>
   <i type="int" name="TAUPAR">     1</i>
   <i type="int" name="OMEGAPAR">    -1</i>
   <i name="LAMBDA">      1.00000000</i>
  </separator>
  <separator name="External order field" >
   <i name="OFIELD_KAPPA">      0.00000000</i>
   <v name="OFIELD_K">      0.00000000      0.00000000      0.00000000</v>
   <i name="OFIELD_Q6_NEAR">      0.00000000</i>
   <i name="OFIELD_Q6_FAR">      0.00000000</i>
   <i name="OFIELD_A">      0.00000000</i>
  </separator>
 </parameters>
 <atominfo>
  <atoms>       4 </atoms>
  <types>       1 </types>
  <array name="atoms" >
   <dimension dim="1">ion</dimension>
   <field type="string">element</field>
   <field type="int">atomtype</field>
   <set>
    <rc><c>Si</c><c>   1</c></rc>
    <rc><c>Si</c><c>   1</c></rc>
    <rc><c>Si</c><c>   1</c></rc>
    <rc><c>Si</c><c>   1</c></rc>
   </set>
  </array>
  <array name="atomtypes" >
   <dimension dim="1">type</dimension>
   <field type="int">atomspertype</field>
   <field type="string">element</field>
   <field>mass</field>
   <field>valence</field>
   <field type="string">pseudopotential</field>
   <set>
    <rc><c>   4</c><c>Si</c><c>     28.08500000</c><c>      4.00000000</c><c>  PAW_PBE Si 05Jan2001                  </c></rc>
   </set>
  </array>
 </atominfo>
 <structure name="initialpos" >
  <crystal>
   <varray name="basis" >
    <v>       3.75230206       0.00000000       0.00000000 </v>
    <v>       0.00000000       3.82887966       0.00000000 </v>
    <v>       0.00000000       0.00000000       3.82887966 </v>
   </varray>
   <i name="volume">     55.00994688 </i>
   <varray name="rec_basis" >
    <v>       0.26650306       0.00000000       0.00000000 </v>
    <v>       0.00000000       0.26117300       0.00000000 </v>
    <v>       0.00000000       0.00000000       0.26117300 </v>
   </varray>
  </crystal>
  <varray name="positions" >
   <v>       0.00000000       0.00000000       0.00000000 </v>
   <v>       0.50000000       0.50000000       0.00000000 </v>
   <v>       0.50000000       0.00000000       0.50000000 </v>
   <v>       0.00000000       0.50000000       0.50000000 </v>
  </varray>
 </structure>
 <calculation>
  <scstep>
   <time name="dav">    2.09    2.14</time>
   <time name="total">    2.16    2.21</time>
   <energy>
    <i name="alphaZ">      9.79114003 </i>
    <i name="ewald">   -555.49845365 </i>
    <i name="hartreedc">     -1.98885463 </i>
    <i name="XCdc">    -34.67719098 </i>
    <i name="pawpsdc">    352.49519846 </i>
    <i name="pawaedc">   -282.12207116 </i>
    <i name="eentropy">     -0.00018496 </i>
    <i name="bandstr">    113.74585202 </i>
    <i name="atom">    412.26298491 </i>
    <i name="e_fr_energy">     14.00842003 </i>
    <i name="e_wo_entrp">     14.00860500 </i>
    <i name="e_0_energy">     14.00846627 </i>
   </energy>
  </scstep>
  <scstep>
   <time name="dav">    2.62    2.63</time>
   <time name="total">    2.64    2.66</time>
   <energy>
    <i name="e_fr_energy">    -18.61692257 </i>
    <i name="e_wo_entrp">    -18.61644404 </i>
    <i name="e_0_energy">    -18.61680294 </i>
   </energy>
  </scstep>
  <scstep>
   <time name="dav">    2.51    2.51</time>
   <time name="total">    2.53    2.54</time>
   <energy>
    <i name="e_fr_energy">    -19.59210173 </i>
    <i name="e_wo_entrp">    -19.59158515 </i>
    <i name="e_0_energy">    -19.59197258 </i>
   </energy>
  </scstep>
  <scstep>
   <time name="dav">    2.50    2.51</time>
   <time name="total">    2.51    2.54</time>
   <energy>
    <i name="e_fr_energy">    -19.59644256 </i>
    <i name="e_wo_entrp">    -19.59594189 </i>
    <i name="e_0_energy">    -19.59631739 </i>
   </energy>
  </scstep>
  <scstep>
   <time name="dav">    2.50    2.50</time>
   <time name="total">    2.58    2.60</time>
   <energy>
    <i name="e_fr_energy">    -19.59646806 </i>
    <i name="e_wo_entrp">    -19.59596758 </i>
    <i name="e_0_energy">    -19.59634294 </i>
   </energy>
  </scstep>
  <scstep>
   <time name="dav">    2.38    2.38</time>
   <time name="total">    2.46    2.48</time>
   <energy>
    <i name="e_fr_energy">    -19.54038776 </i>
    <i name="e_wo_entrp">    -19.53980640 </i>
    <i name="e_0_energy">    -19.54024242 </i>
   </energy>
  </scstep>
  <scstep>
   <time name="dav">    2.24    2.23</time>
   <time name="total">    2.34    2.33</time>
   <energy>
    <i name="e_fr_energy">    -19.50797534 </i>
    <i name="e_wo_entrp">    -19.50727442 </i>
    <i name="e_0_energy">    -19.50780011 </i>
   </energy>
  </scstep>
  <scstep>
   <time name="dav">    2.58    2.57</time>
   <time name="total">    2.65    2.67</time>
   <energy>
    <i name="e_fr_energy">    -19.50772919 </i>
    <i name="e_wo_entrp">    -19.50702389 </i>
    <i name="e_0_energy">    -19.50755287 </i>
   </energy>
  </scstep>
  <scstep>
   <time name="dav">    1.68    1.67</time>
   <time name="total">    1.70    1.71</time>
   <energy>
    <i name="alphaZ">      9.79114003 </i>
    <i name="ewald">   -555.49845365 </i>
    <i name="hartreedc">     -1.51190946 </i>
    <i name="XCdc">    -34.40264463 </i>
    <i name="pawpsdc">   1328.55382194 </i>
    <i name="pawaedc">  -1258.24822690 </i>
    <i name="eentropy">     -0.00070638 </i>
    <i name="bandstr">     79.54626455 </i>
    <i name="atom">    412.26298491 </i>
    <i name="e_fr_energy">    -19.50772961 </i>
    <i name="e_wo_entrp">    -19.50702322 </i>
    <i name="e_0_energy">    -19.50755301 </i>
   </energy>
  </scstep>
  <structure>
   <crystal>
    <varray name="basis" >
     <v>       3.75230206       0.00000000       0.00000000 </v>
     <v>       0.00000000       3.82887966       0.00000000 </v>
     <v>       0.00000000       0.00000000       3.82887966 </v>
    </varray>
    <i name="volume">     55.00994688 </i>
    <varray name="rec_basis" >
     <v>       0.26650306       0.00000000       0.00000000 </v>
     <v>       0.00000000       0.26117300       0.00000000 </v>
     <v>       0.00000000       0.00000000       0.26117300 </v>
    </varray>
   </crystal>
   <varray name="positions" >
    <v>       0.00000000       0.00000000       0.00000000 </v>
    <v>       0.50000000       0.50000000       0.00000000 </v>
    <v>       0.50000000       0.00000000       0.50000000 </v>
    <v>       0.00000000       0.50000000       0.50000000 </v>
   </varray>
  </structure>
  <varray name="forces" >
   <v>       0.00000000       0.00000000       0.00000000 </v>
   <v>       0.00000000       0.00000000       0.00000000 </v>
   <v>       0.00000000       0.00000000       0.00000000 </v>
   <v>       0.00000000       0.00000000       0.00000000 </v>
  </varray>
  <varray name="stress" >
   <v>      42.80652010       0.00000000       0.00000000 </v>
   <v>       0.00000000      48.77647139       0.00000000 </v>
   <v>       0.00000000       0.00000000      48.77647139 </v>
  </varray>
  <energy>
   <i name="e_fr_energy">    -19.50772961 </i>
   <i name="e_wo_entrp">    -19.50755301 </i>
   <i name="e_0_energy">     -0.00070638 </i>
  </energy>
  <time name="totalsc">   22.95   23.16</time>
  <eigenvalues>
   <array>
    <dimension dim="1">band</dimension>
    <dimension dim="2">kpoint</dimension>
    <dimension dim="3">spin</dimension>
    <field>eigene</field>
    <field>occ</field>
    <set>
     <set comment="spin 1">
      <set comment="kpoint 1">
       <r>   -4.0776    1.0000 </r>
       <r>    5.1513    1.0000 </r>
       <r>    5.1513    1.0000 </r>
       <r>    5.4498    1.0000 </r>
       <r>    6.1510    1.0000 </r>
       <r>    6.1510    1.0000 </r>
       <r>    6.6494    1.0000 </r>
       <r>   13.9353    0.0000 </r>
       <r>   13.9353    0.0000 </r>
       <r>   14.2434    0.0000 </r>
       <r>   14.2434    0.0000 </r>
       <r>   14.4375    0.0000 </r>
       <r>   14.4375    0.0000 </r>
       <r>   15.0134    0.0000 </r>
       <r>   15.2534    0.0000 </r>
       <r>   15.2534    0.0000 </r>
      </set>
      <set comment="kpoint 2">
       <r>   -4.0165    1.0000 </r>
       <r>    4.4689    1.0000 </r>
       <r>    5.2086    1.0000 </r>
       <r>    5.2086    1.0000 </r>
       <r>    6.2097    1.0000 </r>
       <r>    6.2097    1.0000 </r>
       <r>    7.7347    1.0000 </r>
       <r>   13.3606    0.0000 </r>
       <r>   13.3606    0.0000 </r>
       <r>   13.8095    0.0000 </r>
       <r>   13.8095    0.0000 </r>
       <r>   13.9885    0.0000 </r>
       <r>   13.9885    0.0000 </r>
       <r>   15.0740    0.0000 </r>
       <r>   16.4405    0.0000 </r>
       <r>   16.4405    0.0000 </r>
      </set>
      <set comment="kpoint 3">
       <r>   -3.8333    1.0000 </r>
       <r>    3.1656    1.0000 </r>
       <r>    5.3805    1.0000 </r>
       <r>    5.3805    1.0000 </r>
       <r>    6.3851    1.0000 </r>
       <r>    6.3851    1.0000 </r>
       <r>    9.3503    1.0000 </r>
       <r>   12.0706    0.0000 </r>
       <r>   12.0706    0.0000 </r>
       <r>   12.8876    0.0000 </r>
       <r>   12.8876    0.0000 </r>
       <r>   14.1483    0.0000 </r>
       <r>   14.1483    0.0000 </r>
       <r>   15.2557    0.0000 </r>
       <r>   17.9022    0.0000 </r>
       <r>   18.0631    0.0000 </r>
      </set>
      <set comment="kpoint 4">
       <r>   -3.5283    1.0000 </r>
       <r>    1.9367    1.0000 </r>
       <r>    5.6669    1.0000 </r>
       <r>    5.6669    1.0000 </r>
       <r>    6.6756    1.0000 </r>
       <r>    6.6756    1.0000 </r>
       <r>   10.8760    0.9359 </r>
       <r>   10.8760    0.9359 </r>
       <r>   11.0951   -0.0002 </r>
       <r>   11.8607    0.0000 </r>
       <r>   11.8607    0.0000 </r>
       <r>   14.4145    0.0000 </r>
       <r>   14.4145    0.0000 </r>
       <r>   15.5594    0.0000 </r>
       <r>   18.1857    0.0000 </r>
       <r>   19.2224    0.0000 </r>
      </set>
      <set comment="kpoint 5">
       <r>   -3.1021    1.0000 </r>
       <r>    0.8110    1.0000 </r>
       <r>    6.0680    1.0000 </r>
       <r>    6.0680    1.0000 </r>
       <r>    7.0770    1.0000 </r>
       <r>    7.0770    1.0000 </r>
       <r>    9.7906    1.0000 </r>
       <r>    9.7906    1.0000 </r>
       <r>   10.8638    0.9938 </r>
       <r>   10.8638    0.9938 </r>
       <r>   12.9307    0.0000 </r>
       <r>   14.7870    0.0000 </r>
       <r>   14.7870    0.0000 </r>
       <r>   15.9815    0.0000 </r>
       <r>   18.2274    0.0000 </r>
       <r>   18.2275    0.0000 </r>
      </set>
      <set comment="kpoint 6">
       <r>   -2.5554    1.0000 </r>
       <r>   -0.2041    1.0000 </r>
       <r>    6.5838    1.0000 </r>
       <r>    6.5838    1.0000 </r>
       <r>    7.5775    1.0000 </r>
       <r>    7.5775    1.0000 </r>
       <r>    8.8178    1.0000 </r>
       <r>    8.8178    1.0000 </r>
       <r>    9.9530    1.0000 </r>
       <r>    9.9530    1.0000 </r>
       <r>   14.8277    0.0000 </r>
       <r>   15.2655    0.0000 </r>
       <r>   15.2655    0.0000 </r>
       <r>   16.5221    0.0000 </r>
       <r>   17.3319    0.0000 </r>
       <r>   17.3319    0.0000 </r>
      </set>
      <set comment="kpoint 7">
       <r>   -1.8892    1.0000 </r>
       <r>   -1.1049    1.0000 </r>
       <r>    7.2140    1.0000 </r>
       <r>    7.2140    1.0000 </r>
       <r>    7.9588    1.0000 </r>
       <r>    7.9588    1.0000 </r>
       <r>    8.1106    1.0000 </r>
       <r>    8.1106    1.0000 </r>
       <r>    9.2115    1.0000 </r>
       <r>    9.2115    1.0000 </r>
       <r>   15.8497    0.0000 </r>
       <r>   15.8497    0.0000 </r>
       <r>   16.5387    0.0000 </r>
       <r>   16.5387    0.0000 </r>
       <r>   16.7256    0.0000 </r>
       <r>   17.1785    0.0000 </r>
      </set>
      <set comment="kpoint 8">
       <r>   -4.0189    1.0000 </r>
       <r>    4.1576    1.0000 </r>
       <r>    5.2063    1.0000 </r>
       <r>    5.5046    1.0000 </r>
       <r>    6.2074    1.0000 </r>
       <r>    6.7055    1.0000 </r>
       <r>    7.2459    1.0000 </r>
       <r>   13.0013    0.0000 </r>
       <r>   13.2897    0.0000 </r>
       <r>   13.5174    0.0000 </r>
       <r>   14.0172    0.0000 </r>
       <r>   14.2944    0.0000 </r>
       <r>   14.4885    0.0000 </r>
       <r>   15.3107    0.0000 </r>
       <r>   16.0544    0.0000 </r>
       <r>   16.3143    0.0000 </r>
      </set>
      <set comment="kpoint 9">
       <r>   -3.9578    1.0000 </r>
       <r>    4.2159    1.0000 </r>
       <r>    4.5246    1.0000 </r>
       <r>    5.2636    1.0000 </r>
       <r>    6.2659    1.0000 </r>
       <r>    7.3036    1.0000 </r>
       <r>    7.7897    1.0000 </r>
       <r>   12.3405    0.0000 </r>
       <r>   13.0572    0.0000 </r>
       <r>   13.4144    0.0000 </r>
       <r>   13.5717    0.0000 </r>
       <r>   13.8614    0.0000 </r>
       <r>   14.4419    0.0000 </r>
       <r>   16.1127    0.0000 </r>
       <r>   16.4014    0.0000 </r>
       <r>   16.4959    0.0000 </r>
      </set>
      <set comment="kpoint 10">
       <r>   -3.7747    1.0000 </r>
       <r>    3.2220    1.0000 </r>
       <r>    4.3905    1.0000 </r>
       <r>    5.4355    1.0000 </r>
       <r>    6.4406    1.0000 </r>
       <r>    7.4757    1.0000 </r>
       <r>    9.4038    1.0000 </r>
       <r>   11.1088    0.0035 </r>
       <r>   12.1250    0.0000 </r>
       <r>   12.9412    0.0000 </r>
       <r>   13.2245    0.0000 </r>
       <r>   13.7349    0.0000 </r>
       <r>   13.8504    0.0000 </r>
       <r>   16.2870    0.0000 </r>
       <r>   17.5165    0.0000 </r>
       <r>   18.1174    0.0000 </r>
      </set>
      <set comment="kpoint 11">
       <r>   -3.4698    1.0000 </r>
       <r>    1.9936    1.0000 </r>
       <r>    4.6812    1.0000 </r>
       <r>    5.7219    1.0000 </r>
       <r>    6.7291    1.0000 </r>
       <r>    7.7605    1.0000 </r>
       <r>    9.9413    1.0000 </r>
       <r>   10.9306    0.4459 </r>
       <r>   11.1455    0.0042 </r>
       <r>   11.9164    0.0000 </r>
       <r>   12.8660    0.0000 </r>
       <r>   13.5030    0.0000 </r>
       <r>   14.0082    0.0000 </r>
       <r>   16.5766    0.0000 </r>
       <r>   18.4874    0.0000 </r>
       <r>   18.6844    0.0000 </r>
      </set>
      <set comment="kpoint 12">
       <r>   -3.0437    1.0000 </r>
       <r>    0.8682    1.0000 </r>
       <r>    5.0873    1.0000 </r>
       <r>    6.1230    1.0000 </r>
       <r>    7.1226    1.0000 </r>
       <r>    8.1530    1.0000 </r>
       <r>    8.8774    1.0000 </r>
       <r>    9.8453    1.0000 </r>
       <r>   10.9238    0.5181 </r>
       <r>   11.8740    0.0000 </r>
       <r>   12.9699    0.0000 </r>
       <r>   13.8924    0.0000 </r>
       <r>   14.3991    0.0000 </r>
       <r>   16.9812    0.0000 </r>
       <r>   17.4643    0.0000 </r>
       <r>   17.7889    0.0000 </r>
      </set>
      <set comment="kpoint 13">
       <r>   -2.4972    1.0000 </r>
       <r>   -0.1466    1.0000 </r>
       <r>    5.6075    1.0000 </r>
       <r>    6.6387    1.0000 </r>
       <r>    7.5200    1.0000 </r>
       <r>    8.0239    1.0000 </r>
       <r>    8.6294    1.0000 </r>
       <r>    8.8727    1.0000 </r>
       <r>   10.0322    1.0000 </r>
       <r>   10.9540    0.2168 </r>
       <r>   14.3921    0.0000 </r>
       <r>   14.6682    0.0000 </r>
       <r>   15.0892    0.0000 </r>
       <r>   16.5391    0.0000 </r>
       <r>   16.9018    0.0000 </r>
       <r>   17.5001    0.0000 </r>
      </set>
      <set comment="kpoint 14">
       <r>   -1.8312    1.0000 </r>
       <r>   -1.0471    1.0000 </r>
       <r>    6.2390    1.0000 </r>
       <r>    6.9695    1.0000 </r>
       <r>    7.2690    1.0000 </r>
       <r>    8.0137    1.0000 </r>
       <r>    8.3219    1.0000 </r>
       <r>    8.8749    1.0000 </r>
       <r>    9.5764    1.0000 </r>
       <r>   10.1422    1.0000 </r>
       <r>   15.0006    0.0000 </r>
       <r>   15.4049    0.0000 </r>
       <r>   15.7170    0.0000 </r>
       <r>   16.1079    0.0000 </r>
       <r>   16.8640    0.0000 </r>
       <r>   18.1313    0.0000 </r>
      </set>
      <set comment="kpoint 15">
       <r>   -3.8429    1.0000 </r>
       <r>    2.8920    1.0000 </r>
       <r>    5.3713    1.0000 </r>
       <r>    5.6692    1.0000 </r>
       <r>    6.3761    1.0000 </r>
       <r>    6.8732    1.0000 </r>
       <r>    8.8145    1.0000 </r>
       <r>   11.7831    0.0000 </r>
       <r>   12.0686    0.0000 </r>
       <r>   12.6307    0.0000 </r>
       <r>   13.1276    0.0000 </r>
       <r>   14.4474    0.0000 </r>
       <r>   14.6416    0.0000 </r>
       <r>   15.4849    0.0000 </r>
       <r>   17.5948    0.0000 </r>
       <r>   17.8560    0.0000 </r>
      </set>
      <set comment="kpoint 16">
       <r>   -3.7819    1.0000 </r>
       <r>    2.9509    1.0000 </r>
       <r>    4.6919    1.0000 </r>
       <r>    5.4286    1.0000 </r>
       <r>    6.4339    1.0000 </r>
       <r>    7.9539    1.0000 </r>
       <r>    8.8708    1.0000 </r>
       <r>   11.1416    0.0045 </r>
       <r>   11.8395    0.0000 </r>
       <r>   12.6869    0.0000 </r>
       <r>   13.5756    0.0000 </r>
       <r>   14.0173    0.0000 </r>
       <r>   14.0297    0.0000 </r>
       <r>   16.6611    0.0000 </r>
       <r>   17.3289    0.0000 </r>
       <r>   17.6516    0.0000 </r>
      </set>
      <set comment="kpoint 17">
       <r>   -3.5989    1.0000 </r>
       <r>    3.1272    1.0000 </r>
       <r>    3.3910    1.0000 </r>
       <r>    5.6005    1.0000 </r>
       <r>    6.6058    1.0000 </r>
       <r>    9.0391    1.0000 </r>
       <r>    9.5628    1.0000 </r>
       <r>    9.9042    1.0000 </r>
       <r>   12.0090    0.0000 </r>
       <r>   12.2879    0.0000 </r>
       <r>   12.8570    0.0000 </r>
       <r>   13.1025    0.0000 </r>
       <r>   14.7476    0.0000 </r>
       <r>   17.0634    0.0000 </r>
       <r>   17.8225    0.0000 </r>
       <r>   18.2797    0.0000 </r>
      </set>
      <set comment="kpoint 18">
       <r>   -3.2943    1.0000 </r>
       <r>    2.1639    1.0000 </r>
       <r>    3.4207    1.0000 </r>
       <r>    5.8869    1.0000 </r>
       <r>    6.8840    1.0000 </r>
       <r>    8.7401    1.0000 </r>
       <r>    9.3153    1.0000 </r>
       <r>   11.0943   -0.0004 </r>
       <r>   11.2911    0.0000 </r>
       <r>   12.0856    0.0000 </r>
       <r>   12.2914    0.0000 </r>
       <r>   13.1486    0.0000 </r>
       <r>   14.2329    0.0000 </r>
       <r>   17.3628    0.0000 </r>
       <r>   17.8693    0.0000 </r>
       <r>   18.1073    0.0000 </r>
      </set>
      <set comment="kpoint 19">
       <r>   -2.8686    1.0000 </r>
       <r>    1.0396    1.0000 </r>
       <r>    3.8307    1.0000 </r>
       <r>    6.2880    1.0000 </r>
       <r>    7.1778    1.0000 </r>
       <r>    7.7709    1.0000 </r>
       <r>    9.6804    1.0000 </r>
       <r>   10.0096    1.0000 </r>
       <r>   11.1172    0.0046 </r>
       <r>   12.6863    0.0000 </r>
       <r>   13.0091    0.0000 </r>
       <r>   13.3401    0.0000 </r>
       <r>   13.6540    0.0000 </r>
       <r>   16.3195    0.0000 </r>
       <r>   16.9114    0.0000 </r>
       <r>   18.5035    0.0000 </r>
      </set>
      <set comment="kpoint 20">
       <r>   -2.3226    1.0000 </r>
       <r>    0.0258    1.0000 </r>
       <r>    4.3562    1.0000 </r>
       <r>    6.5856    1.0000 </r>
       <r>    6.8037    1.0000 </r>
       <r>    7.9050    1.0000 </r>
       <r>    9.0373    1.0000 </r>
       <r>    9.8675    1.0000 </r>
       <r>   10.5092    1.0000 </r>
       <r>   12.4513    0.0000 </r>
       <r>   13.1934    0.0000 </r>
       <r>   13.9029    0.0000 </r>
       <r>   15.1641    0.0000 </r>
       <r>   15.3771    0.0000 </r>
       <r>   16.0289    0.0000 </r>
       <r>   19.0120    0.0000 </r>
      </set>
      <set comment="kpoint 21">
       <r>   -1.6572    1.0000 </r>
       <r>   -0.8739    1.0000 </r>
       <r>    4.9954    1.0000 </r>
       <r>    5.7443    1.0000 </r>
       <r>    7.4338    1.0000 </r>
       <r>    8.1784    1.0000 </r>
       <r>    8.5043    1.0000 </r>
       <r>    9.2135    1.0000 </r>
       <r>   10.9429    0.3194 </r>
       <r>   11.6411    0.0000 </r>
       <r>   13.8116    0.0000 </r>
       <r>   14.5300    0.0000 </r>
       <r>   14.5401    0.0000 </r>
       <r>   15.2337    0.0000 </r>
       <r>   17.0830    0.0000 </r>
       <r>   18.9790    0.0000 </r>
      </set>
      <set comment="kpoint 22">
       <r>   -3.5499    1.0000 </r>
       <r>    1.7063    1.0000 </r>
       <r>    5.6464    1.0000 </r>
       <r>    5.9436    1.0000 </r>
       <r>    6.6556    1.0000 </r>
       <r>    7.1504    1.0000 </r>
       <r>   10.5014    1.0000 </r>
       <r>   10.6422    0.9994 </r>
       <r>   10.9286    0.4670 </r>
       <r>   11.6446    0.0000 </r>
       <r>   12.1384    0.0000 </r>
       <r>   14.7023    0.0000 </r>
       <r>   14.8967    0.0000 </r>
       <r>   15.7735    0.0000 </r>
       <r>   18.6225    0.0000 </r>
       <r>   19.2692    0.0000 </r>
      </set>
      <set comment="kpoint 23">
       <r>   -3.4889    1.0000 </r>
       <r>    1.7656    1.0000 </r>
       <r>    4.9704    1.0000 </r>
       <r>    5.7037    1.0000 </r>
       <r>    6.7116    1.0000 </r>
       <r>    8.2248    1.0000 </r>
       <r>   10.0162    1.0000 </r>
       <r>   10.5558    1.0000 </r>
       <r>   10.6991    0.9962 </r>
       <r>   11.7037    0.0000 </r>
       <r>   13.1166    0.0000 </r>
       <r>   13.8440    0.0000 </r>
       <r>   14.2777    0.0000 </r>
       <r>   16.9359    0.0000 </r>
       <r>   18.6303    0.0000 </r>
       <r>   18.8367    0.0000 </r>
      </set>
      <set comment="kpoint 24">
       <r>   -3.3063    1.0000 </r>
       <r>    1.9432    1.0000 </r>
       <r>    3.6724    1.0000 </r>
       <r>    5.8755    1.0000 </r>
       <r>    6.8738    1.0000 </r>
       <r>    8.7807    1.0000 </r>
       <r>    9.8201    1.0000 </r>
       <r>   10.7166    0.9952 </r>
       <r>   10.8695    0.9695 </r>
       <r>   11.8865    0.0000 </r>
       <r>   12.5593    0.0000 </r>
       <r>   13.3744    0.0000 </r>
       <r>   14.4742    0.0000 </r>
       <r>   17.4208    0.0000 </r>
       <r>   17.9070    0.0000 </r>
       <r>   17.9115    0.0000 </r>
      </set>
      <set comment="kpoint 25">
       <r>   -3.0021    1.0000 </r>
       <r>    2.2388    1.0000 </r>
       <r>    2.4475    1.0000 </r>
       <r>    6.1620    1.0000 </r>
       <r>    7.0629    1.0000 </r>
       <r>    7.6976    1.0000 </r>
       <r>   10.9663    0.1196 </r>
       <r>   11.1536    0.0036 </r>
       <r>   11.3672    0.0000 </r>
       <r>   11.4699    0.0000 </r>
       <r>   12.2577    0.0000 </r>
       <r>   12.3852    0.0000 </r>
       <r>   15.2581    0.0000 </r>
       <r>   16.2710    0.0000 </r>
       <r>   16.9148    0.0000 </r>
       <r>   17.7218    0.0000 </r>
      </set>
      <set comment="kpoint 26">
       <r>   -2.5771    1.0000 </r>
       <r>    1.3251    1.0000 </r>
       <r>    2.6520    1.0000 </r>
       <r>    6.4043    1.0000 </r>
       <r>    6.5630    1.0000 </r>
       <r>    7.6736    1.0000 </r>
       <r>   10.2833    1.0000 </r>
       <r>   11.0589   -0.0249 </r>
       <r>   11.5510    0.0000 </r>
       <r>   11.6872    0.0000 </r>
       <r>   12.4136    0.0000 </r>
       <r>   13.5406    0.0000 </r>
       <r>   14.8287    0.0000 </r>
       <r>   15.2151    0.0000 </r>
       <r>   15.9586    0.0000 </r>
       <r>   18.9308    0.0000 </r>
      </set>
      <set comment="kpoint 27">
       <r>   -2.0319    1.0000 </r>
       <r>    0.3129    1.0000 </r>
       <r>    3.1816    1.0000 </r>
       <r>    5.4503    1.0000 </r>
       <r>    7.0785    1.0000 </r>
       <r>    8.1635    1.0000 </r>
       <r>    9.3115    1.0000 </r>
       <r>   10.3247    1.0000 </r>
       <r>   11.9948    0.0000 </r>
       <r>   12.0613    0.0000 </r>
       <r>   12.9564    0.0000 </r>
       <r>   14.0450    0.0000 </r>
       <r>   14.2625    0.0000 </r>
       <r>   15.0731    0.0000 </r>
       <r>   15.4072    0.0000 </r>
       <r>   20.6754    0.0000 </r>
      </set>
      <set comment="kpoint 28">
       <r>   -1.3676    1.0000 </r>
       <r>   -0.5854    1.0000 </r>
       <r>    3.8265    1.0000 </r>
       <r>    4.5844    1.0000 </r>
       <r>    7.7086    1.0000 </r>
       <r>    8.4530    1.0000 </r>
       <r>    8.7847    1.0000 </r>
       <r>    9.5125    1.0000 </r>
       <r>   12.5755    0.0000 </r>
       <r>   12.6839    0.0000 </r>
       <r>   13.2699    0.0000 </r>
       <r>   13.4183    0.0000 </r>
       <r>   13.5680    0.0000 </r>
       <r>   14.2739    0.0000 </r>
       <r>   17.3525    0.0000 </r>
       <r>   19.2785    0.0000 </r>
      </set>
      <set comment="kpoint 29">
       <r>   -3.1404    1.0000 </r>
       <r>    0.6222    1.0000 </r>
       <r>    6.0315    1.0000 </r>
       <r>    6.3276    1.0000 </r>
       <r>    7.0427    1.0000 </r>
       <r>    7.5314    1.0000 </r>
       <r>    9.6030    1.0000 </r>
       <r>    9.8910    1.0000 </r>
       <r>   10.6902    0.9969 </r>
       <r>   11.1781    0.0019 </r>
       <r>   12.2785    0.0000 </r>
       <r>   15.0590    0.0000 </r>
       <r>   15.2537    0.0000 </r>
       <r>   16.1764    0.0000 </r>
       <r>   18.3593    0.0000 </r>
       <r>   18.5476    0.0000 </r>
      </set>
      <set comment="kpoint 30">
       <r>   -3.0796    1.0000 </r>
       <r>    0.6818    1.0000 </r>
       <r>    5.3592    1.0000 </r>
       <r>    6.0887    1.0000 </r>
       <r>    7.0922    1.0000 </r>
       <r>    8.5939    1.0000 </r>
       <r>    8.9917    1.0000 </r>
       <r>    9.6600    1.0000 </r>
       <r>   10.7569    1.0006 </r>
       <r>   12.1730    0.0000 </r>
       <r>   12.3281    0.0000 </r>
       <r>   14.2192    0.0000 </r>
       <r>   14.6450    0.0000 </r>
       <r>   17.3202    0.0000 </r>
       <r>   17.6515    0.0000 </r>
       <r>   17.8993    0.0000 </r>
      </set>
      <set comment="kpoint 31">
       <r>   -2.8973    1.0000 </r>
       <r>    0.8605    1.0000 </r>
       <r>    4.0655    1.0000 </r>
       <r>    6.2606    1.0000 </r>
       <r>    7.1770    1.0000 </r>
       <r>    7.8276    1.0000 </r>
       <r>    9.8310    1.0000 </r>
       <r>   10.1225    1.0000 </r>
       <r>   11.0028   -0.0371 </r>
       <r>   12.4619    0.0000 </r>
       <r>   12.9388    0.0000 </r>
       <r>   13.6681    0.0000 </r>
       <r>   13.7756    0.0000 </r>
       <r>   16.4245    0.0000 </r>
       <r>   16.9862    0.0000 </r>
       <r>   18.9272    0.0000 </r>
      </set>
      <set comment="kpoint 32">
       <r>   -2.5938    1.0000 </r>
       <r>    1.1580    1.0000 </r>
       <r>    2.8438    1.0000 </r>
       <r>    6.4431    1.0000 </r>
       <r>    6.5470    1.0000 </r>
       <r>    7.6600    1.0000 </r>
       <r>   10.1160    1.0000 </r>
       <r>   11.0534   -0.0303 </r>
       <r>   11.7487    0.0000 </r>
       <r>   12.0904    0.0000 </r>
       <r>   12.4341    0.0000 </r>
       <r>   13.0664    0.0000 </r>
       <r>   15.1406    0.0000 </r>
       <r>   15.2624    0.0000 </r>
       <r>   15.9958    0.0000 </r>
       <r>   18.5920    0.0000 </r>
      </set>
      <set comment="kpoint 33">
       <r>   -2.1697    1.0000 </r>
       <r>    1.5737    1.0000 </r>
       <r>    1.7240    1.0000 </r>
       <r>    5.3777    1.0000 </r>
       <r>    6.9479    1.0000 </r>
       <r>    8.0355    1.0000 </r>
       <r>   10.5147    1.0000 </r>
       <r>   10.6661    0.9985 </r>
       <r>   11.5033    0.0000 </r>
       <r>   11.6271    0.0000 </r>
       <r>   13.2660    0.0000 </r>
       <r>   13.8641    0.0000 </r>
       <r>   14.1977    0.0000 </r>
       <r>   15.0359    0.0000 </r>
       <r>   15.9708    0.0000 </r>
       <r>   18.5551    0.0000 </r>
      </set>
      <set comment="kpoint 34">
       <r>   -1.6256    1.0000 </r>
       <r>    0.7141    1.0000 </r>
       <r>    2.1068    1.0000 </r>
       <r>    4.3958    1.0000 </r>
       <r>    7.4633    1.0000 </r>
       <r>    8.5468    1.0000 </r>
       <r>    9.6951    1.0000 </r>
       <r>   10.7294    0.9952 </r>
       <r>   11.0269   -0.0506 </r>
       <r>   12.0170    0.0000 </r>
       <r>   13.2391    0.0000 </r>
       <r>   13.7292    0.0000 </r>
       <r>   14.1446    0.0000 </r>
       <r>   15.6329    0.0000 </r>
       <r>   15.7540    0.0000 </r>
       <r>   19.8721    0.0000 </r>
      </set>
      <set comment="kpoint 35">
       <r>   -0.9628    1.0000 </r>
       <r>   -0.1823    1.0000 </r>
       <r>    2.7561    1.0000 </r>
       <r>    3.5200    1.0000 </r>
       <r>    8.0931    1.0000 </r>
       <r>    8.8372    1.0000 </r>
       <r>    9.1720    1.0000 </r>
       <r>    9.9030    1.0000 </r>
       <r>   11.6522    0.0000 </r>
       <r>   12.3899    0.0000 </r>
       <r>   12.6285    0.0000 </r>
       <r>   13.3391    0.0000 </r>
       <r>   14.3063    0.0000 </r>
       <r>   14.9644    0.0000 </r>
       <r>   17.6856    0.0000 </r>
       <r>   19.5652    0.0000 </r>
      </set>
      <set comment="kpoint 36">
       <r>   -2.6150    1.0000 </r>
       <r>   -0.3545    1.0000 </r>
       <r>    6.5265    1.0000 </r>
       <r>    6.8214    1.0000 </r>
       <r>    7.5293    1.0000 </r>
       <r>    7.9970    1.0000 </r>
       <r>    8.6703    1.0000 </r>
       <r>    8.9601    1.0000 </r>
       <r>    9.8295    1.0000 </r>
       <r>   10.2966    1.0000 </r>
       <r>   14.1262    0.0000 </r>
       <r>   15.5175    0.0000 </r>
       <r>   15.7122    0.0000 </r>
       <r>   16.6919    0.0000 </r>
       <r>   17.4994    0.0000 </r>
       <r>   17.6912    0.0000 </r>
      </set>
      <set comment="kpoint 37">
       <r>   -2.5544    1.0000 </r>
       <r>   -0.2946    1.0000 </r>
       <r>    5.8574    1.0000 </r>
       <r>    6.5838    1.0000 </r>
       <r>    7.5194    1.0000 </r>
       <r>    8.1286    1.0000 </r>
       <r>    8.7274    1.0000 </r>
       <r>    9.0053    1.0000 </r>
       <r>    9.9458    1.0000 </r>
       <r>   11.2921    0.0000 </r>
       <r>   14.1512    0.0000 </r>
       <r>   14.7000    0.0000 </r>
       <r>   15.1370    0.0000 </r>
       <r>   16.7645    0.0000 </r>
       <r>   17.0459    0.0000 </r>
       <r>   17.8120    0.0000 </r>
      </set>
      <set comment="kpoint 38">
       <r>   -2.3726    1.0000 </r>
       <r>   -0.1149    1.0000 </r>
       <r>    4.5693    1.0000 </r>
       <r>    6.7011    1.0000 </r>
       <r>    6.7556    1.0000 </r>
       <r>    7.8640    1.0000 </r>
       <r>    8.8988    1.0000 </r>
       <r>    9.8653    1.0000 </r>
       <r>   10.8538    1.0251 </r>
       <r>   12.8296    0.0000 </r>
       <r>   13.4263    0.0000 </r>
       <r>   13.9650    0.0000 </r>
       <r>   14.5987    0.0000 </r>
       <r>   15.5216    0.0000 </r>
       <r>   16.1374    0.0000 </r>
       <r>   19.4099    0.0000 </r>
      </set>
      <set comment="kpoint 39">
       <r>   -2.0700    1.0000 </r>
       <r>    0.1841    1.0000 </r>
       <r>    3.3520    1.0000 </r>
       <r>    5.5291    1.0000 </r>
       <r>    7.0419    1.0000 </r>
       <r>    8.1281    1.0000 </r>
       <r>    9.1844    1.0000 </r>
       <r>   10.2173    1.0000 </r>
       <r>   12.2387    0.0000 </r>
       <r>   12.5134    0.0000 </r>
       <r>   13.0950    0.0000 </r>
       <r>   14.3505    0.0000 </r>
       <r>   14.4602    0.0000 </r>
       <r>   14.7359    0.0000 </r>
       <r>   15.1450    0.0000 </r>
       <r>   20.2009    0.0000 </r>
      </set>
      <set comment="kpoint 40">
       <r>   -1.6470    1.0000 </r>
       <r>    0.6021    1.0000 </r>
       <r>    2.2357    1.0000 </r>
       <r>    4.4339    1.0000 </r>
       <r>    7.4426    1.0000 </r>
       <r>    8.5266    1.0000 </r>
       <r>    9.5840    1.0000 </r>
       <r>   10.6276    0.9997 </r>
       <r>   11.1579    0.0033 </r>
       <r>   12.1327    0.0000 </r>
       <r>   13.2796    0.0000 </r>
       <r>   14.1796    0.0000 </r>
       <r>   14.3163    0.0000 </r>
       <r>   15.0871    0.0000 </r>
       <r>   16.0136    0.0000 </r>
       <r>   19.4575    0.0000 </r>
      </set>
      <set comment="kpoint 41">
       <r>   -1.1045    1.0000 </r>
       <r>    1.1381    1.0000 </r>
       <r>    1.2288    1.0000 </r>
       <r>    3.4418    1.0000 </r>
       <r>    7.9579    1.0000 </r>
       <r>    9.0410    1.0000 </r>
       <r>   10.0975    1.0000 </r>
       <r>   10.1880    1.0000 </r>
       <r>   11.1385    0.0046 </r>
       <r>   11.2224    0.0003 </r>
       <r>   12.3166    0.0000 </r>
       <r>   13.2815    0.0000 </r>
       <r>   15.5481    0.0000 </r>
       <r>   16.1869    0.0000 </r>
       <r>   16.8815    0.0000 </r>
       <r>   19.5867    0.0000 </r>
      </set>
      <set comment="kpoint 42">
       <r>   -0.4434    1.0000 </r>
       <r>    0.3349    1.0000 </r>
       <r>    1.7911    1.0000 </r>
       <r>    2.5597    1.0000 </r>
       <r>    8.5873    1.0000 </r>
       <r>    9.3309    1.0000 </r>
       <r>    9.6658    1.0000 </r>
       <r>   10.3955    1.0000 </r>
       <r>   10.7244    0.9951 </r>
       <r>   11.4644    0.0000 </r>
       <r>   11.7532    0.0000 </r>
       <r>   12.4694    0.0000 </r>
       <r>   16.0889    0.0000 </r>
       <r>   16.6393    0.0000 </r>
       <r>   18.0560    0.0000 </r>
       <r>   19.7217    0.0000 </r>
      </set>
      <set comment="kpoint 43">
       <r>   -1.9748    1.0000 </r>
       <r>   -1.2208    1.0000 </r>
       <r>    7.1315    1.0000 </r>
       <r>    7.4249    1.0000 </r>
       <r>    7.8462    1.0000 </r>
       <r>    8.0820    1.0000 </r>
       <r>    8.1379    1.0000 </r>
       <r>    8.3949    1.0000 </r>
       <r>    9.2310    1.0000 </r>
       <r>    9.5437    1.0000 </r>
       <r>   16.0109    0.0000 </r>
       <r>   16.0774    0.0000 </r>
       <r>   16.2716    0.0000 </r>
       <r>   16.7383    0.0000 </r>
       <r>   16.9316    0.0000 </r>
       <r>   17.3175    0.0000 </r>
      </set>
      <set comment="kpoint 44">
       <r>   -1.9143    1.0000 </r>
       <r>   -1.1606    1.0000 </r>
       <r>    6.4616    1.0000 </r>
       <r>    7.1555    1.0000 </r>
       <r>    7.1888    1.0000 </r>
       <r>    7.9034    1.0000 </r>
       <r>    8.2585    1.0000 </r>
       <r>    8.8718    1.0000 </r>
       <r>    9.8772    1.0000 </r>
       <r>   10.5075    1.0000 </r>
       <r>   15.2855    0.0000 </r>
       <r>   15.5561    0.0000 </r>
       <r>   15.9744    0.0000 </r>
       <r>   16.1933    0.0000 </r>
       <r>   16.2779    0.0000 </r>
       <r>   18.0135    0.0000 </r>
      </set>
      <set comment="kpoint 45">
       <r>   -1.7331    1.0000 </r>
       <r>   -0.9801    1.0000 </r>
       <r>    5.1821    1.0000 </r>
       <r>    5.8995    1.0000 </r>
       <r>    7.3605    1.0000 </r>
       <r>    8.0750    1.0000 </r>
       <r>    8.4354    1.0000 </r>
       <r>    9.1245    1.0000 </r>
       <r>   11.3808    0.0000 </r>
       <r>   12.0564    0.0000 </r>
       <r>   14.0200    0.0000 </r>
       <r>   14.6833    0.0000 </r>
       <r>   14.7191    0.0000 </r>
       <r>   15.3711    0.0000 </r>
       <r>   16.3617    0.0000 </r>
       <r>   18.2613    0.0000 </r>
      </set>
      <set comment="kpoint 46">
       <r>   -1.4315    1.0000 </r>
       <r>   -0.6797    1.0000 </r>
       <r>    3.9708    1.0000 </r>
       <r>    4.6981    1.0000 </r>
       <r>    7.6466    1.0000 </r>
       <r>    8.3610    1.0000 </r>
       <r>    8.7248    1.0000 </r>
       <r>    9.4261    1.0000 </r>
       <r>   12.8366    0.0000 </r>
       <r>   13.0768    0.0000 </r>
       <r>   13.5411    0.0000 </r>
       <r>   13.6958    0.0000 </r>
       <r>   13.7367    0.0000 </r>
       <r>   14.3765    0.0000 </r>
       <r>   16.6235    0.0000 </r>
       <r>   18.5438    0.0000 </r>
      </set>
      <set comment="kpoint 47">
       <r>   -1.0100    1.0000 </r>
       <r>   -0.2598    1.0000 </r>
       <r>    2.8591    1.0000 </r>
       <r>    3.5926    1.0000 </r>
       <r>    8.0472    1.0000 </r>
       <r>    8.7611    1.0000 </r>
       <r>    9.1274    1.0000 </r>
       <r>    9.8305    1.0000 </r>
       <r>   11.7579    0.0000 </r>
       <r>   12.4658    0.0000 </r>
       <r>   12.7227    0.0000 </r>
       <r>   13.4059    0.0000 </r>
       <r>   14.8616    0.0000 </r>
       <r>   15.4660    0.0000 </r>
       <r>   16.9768    0.0000 </r>
       <r>   18.8722    0.0000 </r>
      </set>
      <set comment="kpoint 48">
       <r>   -0.4693    1.0000 </r>
       <r>    0.2787    1.0000 </r>
       <r>    1.8559    1.0000 </r>
       <r>    2.5942    1.0000 </r>
       <r>    8.5620    1.0000 </r>
       <r>    9.2754    1.0000 </r>
       <r>    9.6413    1.0000 </r>
       <r>   10.3427    1.0000 </r>
       <r>   10.7897    1.0228 </r>
       <r>   11.4996    0.0000 </r>
       <r>   11.8135    0.0000 </r>
       <r>   12.5014    0.0000 </r>
       <r>   16.6717    0.0000 </r>
       <r>   17.0829    0.0000 </r>
       <r>   17.4029    0.0000 </r>
       <r>   19.1955    0.0000 </r>
      </set>
      <set comment="kpoint 49">
       <r>    0.1895    1.0000 </r>
       <r>    0.9349    1.0000 </r>
       <r>    0.9652    1.0000 </r>
       <r>    1.7073    1.0000 </r>
       <r>    9.1910    1.0000 </r>
       <r>    9.9036    1.0000 </r>
       <r>    9.9337    1.0000 </r>
       <r>   10.2636    1.0000 </r>
       <r>   10.6452    0.9993 </r>
       <r>   10.9615    0.1549 </r>
       <r>   10.9899   -0.0041 </r>
       <r>   11.6831    0.0000 </r>
       <r>   17.8360    0.0000 </r>
       <r>   17.9808    0.0000 </r>
       <r>   18.3319    0.0000 </r>
       <r>   19.2461    0.0000 </r>
      </set>
      <set comment="kpoint 50">
       <r>   -3.9602    1.0000 </r>
       <r>    4.2136    1.0000 </r>
       <r>    4.2136    1.0000 </r>
       <r>    5.5595    1.0000 </r>
       <r>    6.7614    1.0000 </r>
       <r>    7.3013    1.0000 </r>
       <r>    7.3013    1.0000 </r>
       <r>   12.0280    0.0000 </r>
       <r>   13.3431    0.0000 </r>
       <r>   13.3431    0.0000 </r>
       <r>   14.0372    0.0000 </r>
       <r>   14.0692    0.0000 </r>
       <r>   14.0692    0.0000 </r>
       <r>   16.0761    0.0000 </r>
       <r>   16.3693    0.0000 </r>
       <r>   16.3693    0.0000 </r>
      </set>
      <set comment="kpoint 51">
       <r>   -3.8992    1.0000 </r>
       <r>    4.2718    1.0000 </r>
       <r>    4.2718    1.0000 </r>
       <r>    4.5804    1.0000 </r>
       <r>    7.3587    1.0000 </r>
       <r>    7.3587    1.0000 </r>
       <r>    7.8443    1.0000 </r>
       <r>   12.0847    0.0000 </r>
       <r>   12.3948    0.0000 </r>
       <r>   12.3948    0.0000 </r>
       <r>   14.0905    0.0000 </r>
       <r>   14.4929    0.0000 </r>
       <r>   14.4929    0.0000 </r>
       <r>   16.1351    0.0000 </r>
       <r>   16.4578    0.0000 </r>
       <r>   16.4578    0.0000 </r>
      </set>
      <set comment="kpoint 52">
       <r>   -3.7161    1.0000 </r>
       <r>    3.2783    1.0000 </r>
       <r>    4.4463    1.0000 </r>
       <r>    4.4463    1.0000 </r>
       <r>    7.5299    1.0000 </r>
       <r>    7.5299    1.0000 </r>
       <r>    9.4564    1.0000 </r>
       <r>   11.1641    0.0029 </r>
       <r>   11.1641    0.0029 </r>
       <r>   12.2554    0.0000 </r>
       <r>   13.9029    0.0000 </r>
       <r>   13.9029    0.0000 </r>
       <r>   14.2502    0.0000 </r>
       <r>   16.3123    0.0000 </r>
       <r>   17.5712    0.0000 </r>
       <r>   17.5712    0.0000 </r>
      </set>
      <set comment="kpoint 53">
       <r>   -3.4113    1.0000 </r>
       <r>    2.0503    1.0000 </r>
       <r>    4.7368    1.0000 </r>
       <r>    4.7368    1.0000 </r>
       <r>    7.8118    1.0000 </r>
       <r>    7.8118    1.0000 </r>
       <r>    9.9990    1.0000 </r>
       <r>    9.9990    1.0000 </r>
       <r>   11.1913    0.0012 </r>
       <r>   12.5450    0.0000 </r>
       <r>   12.9200    0.0000 </r>
       <r>   12.9200    0.0000 </r>
       <r>   14.5164    0.0000 </r>
       <r>   16.6073    0.0000 </r>
       <r>   17.5003    0.0000 </r>
       <r>   19.1749    0.0000 </r>
      </set>
      <set comment="kpoint 54">
       <r>   -2.9853    1.0000 </r>
       <r>    0.9253    1.0000 </r>
       <r>    5.1423    1.0000 </r>
       <r>    5.1423    1.0000 </r>
       <r>    8.1804    1.0000 </r>
       <r>    8.1804    1.0000 </r>
       <r>    8.9543    1.0000 </r>
       <r>    8.9543    1.0000 </r>
       <r>   11.9299    0.0000 </r>
       <r>   11.9299    0.0000 </r>
       <r>   12.8073    0.0000 </r>
       <r>   13.1564    0.0000 </r>
       <r>   14.8888    0.0000 </r>
       <r>   16.4843    0.0000 </r>
       <r>   17.0218    0.0000 </r>
       <r>   18.3258    0.0000 </r>
      </set>
      <set comment="kpoint 55">
       <r>   -2.4390    1.0000 </r>
       <r>   -0.0891    1.0000 </r>
       <r>    5.6608    1.0000 </r>
       <r>    5.6608    1.0000 </r>
       <r>    7.8960    1.0000 </r>
       <r>    7.8960    1.0000 </r>
       <r>    8.7750    1.0000 </r>
       <r>    8.7750    1.0000 </r>
       <r>   11.0144   -0.0498 </r>
       <r>   11.0144   -0.0498 </r>
       <r>   13.4000    0.0000 </r>
       <r>   14.9636    0.0000 </r>
       <r>   15.3671    0.0000 </r>
       <r>   15.5615    0.0000 </r>
       <r>   17.4318    0.0000 </r>
       <r>   17.5602    0.0000 </r>
      </set>
      <set comment="kpoint 56">
       <r>   -1.7732    1.0000 </r>
       <r>   -0.9894    1.0000 </r>
       <r>    6.2801    1.0000 </r>
       <r>    6.2801    1.0000 </r>
       <r>    7.0747    1.0000 </r>
       <r>    7.0747    1.0000 </r>
       <r>    9.3216    1.0000 </r>
       <r>    9.3216    1.0000 </r>
       <r>   10.2352    1.0000 </r>
       <r>   10.2352    1.0000 </r>
       <r>   14.0181    0.0000 </r>
       <r>   14.7382    0.0000 </r>
       <r>   15.9509    0.0000 </r>
       <r>   16.6396    0.0000 </r>
       <r>   16.8465    0.0000 </r>
       <r>   18.2539    0.0000 </r>
      </set>
      <set comment="kpoint 57">
       <r>   -3.7843    1.0000 </r>
       <r>    2.9485    1.0000 </r>
       <r>    4.3814    1.0000 </r>
       <r>    5.7241    1.0000 </r>
       <r>    6.9280    1.0000 </r>
       <r>    7.4668    1.0000 </r>
       <r>    8.8686    1.0000 </r>
       <r>   10.8389    1.0483 </r>
       <r>   12.1227    0.0000 </r>
       <r>   13.1812    0.0000 </r>
       <r>   13.5034    0.0000 </r>
       <r>   13.5576    0.0000 </r>
       <r>   14.2253    0.0000 </r>
       <r>   16.5352    0.0000 </r>
       <r>   17.0574    0.0000 </r>
       <r>   17.9104    0.0000 </r>
      </set>
      <set comment="kpoint 58">
       <r>   -3.7233    1.0000 </r>
       <r>    3.0073    1.0000 </r>
       <r>    4.4395    1.0000 </r>
       <r>    4.7476    1.0000 </r>
       <r>    7.5233    1.0000 </r>
       <r>    8.0071    1.0000 </r>
       <r>    8.9246    1.0000 </r>
       <r>   10.8971    0.7818 </r>
       <r>   11.1968    0.0010 </r>
       <r>   12.5577    0.0000 </r>
       <r>   13.6124    0.0000 </r>
       <r>   14.0821    0.0000 </r>
       <r>   14.6461    0.0000 </r>
       <r>   16.6262    0.0000 </r>
       <r>   17.1147    0.0000 </r>
       <r>   17.3839    0.0000 </r>
      </set>
      <set comment="kpoint 59">
       <r>   -3.5403    1.0000 </r>
       <r>    3.1836    1.0000 </r>
       <r>    3.4473    1.0000 </r>
       <r>    4.6136    1.0000 </r>
       <r>    7.6907    1.0000 </r>
       <r>    9.0906    1.0000 </r>
       <r>    9.6098    1.0000 </r>
       <r>    9.9620    1.0000 </r>
       <r>   11.0758   -0.0107 </r>
       <r>   11.3312    0.0000 </r>
       <r>   13.7770    0.0000 </r>
       <r>   14.0606    0.0000 </r>
       <r>   14.7986    0.0000 </r>
       <r>   17.1191    0.0000 </r>
       <r>   17.2877    0.0000 </r>
       <r>   17.4780    0.0000 </r>
      </set>
      <set comment="kpoint 60">
       <r>   -3.2358    1.0000 </r>
       <r>    2.2206    1.0000 </r>
       <r>    3.4769    1.0000 </r>
       <r>    4.9031    1.0000 </r>
       <r>    7.9466    1.0000 </r>
       <r>    8.8170    1.0000 </r>
       <r>    9.3493    1.0000 </r>
       <r>   10.1850    1.0000 </r>
       <r>   11.1836    0.0016 </r>
       <r>   11.5247    0.0000 </r>
       <r>   13.0827    0.0000 </r>
       <r>   14.0528    0.0000 </r>
       <r>   14.2854    0.0000 </r>
       <r>   16.3672    0.0000 </r>
       <r>   17.5756    0.0000 </r>
       <r>   18.2257    0.0000 </r>
      </set>
      <set comment="kpoint 61">
       <r>   -2.8103    1.0000 </r>
       <r>    1.0967    1.0000 </r>
       <r>    3.8865    1.0000 </r>
       <r>    5.3062    1.0000 </r>
       <r>    7.6288    1.0000 </r>
       <r>    8.4568    1.0000 </r>
       <r>    9.0313    1.0000 </r>
       <r>    9.8167    1.0000 </r>
       <r>   11.7126    0.0000 </r>
       <r>   12.1001    0.0000 </r>
       <r>   13.2126    0.0000 </r>
       <r>   13.3940    0.0000 </r>
       <r>   14.4483    0.0000 </r>
       <r>   15.3387    0.0000 </r>
       <r>   17.8612    0.0000 </r>
       <r>   17.9789    0.0000 </r>
      </set>
      <set comment="kpoint 62">
       <r>   -2.2644    1.0000 </r>
       <r>    0.0832    1.0000 </r>
       <r>    4.4112    1.0000 </r>
       <r>    5.8105    1.0000 </r>
       <r>    6.7033    1.0000 </r>
       <r>    8.0876    1.0000 </r>
       <r>    8.9337    1.0000 </r>
       <r>   10.2558    1.0000 </r>
       <r>   11.2194    0.0004 </r>
       <r>   12.2277    0.0000 </r>
       <r>   12.5070    0.0000 </r>
       <r>   14.4053    0.0000 </r>
       <r>   14.7925    0.0000 </r>
       <r>   15.2529    0.0000 </r>
       <r>   16.9707    0.0000 </r>
       <r>   18.5013    0.0000 </r>
      </set>
      <set comment="kpoint 63">
       <r>   -1.5993    1.0000 </r>
       <r>   -0.8162    1.0000 </r>
       <r>    5.0480    1.0000 </r>
       <r>    5.7782    1.0000 </r>
       <r>    6.5100    1.0000 </r>
       <r>    7.2348    1.0000 </r>
       <r>    9.5424    1.0000 </r>
       <r>   10.2149    1.0000 </r>
       <r>   11.0397   -0.0428 </r>
       <r>   11.7014    0.0000 </r>
       <r>   12.8470    0.0000 </r>
       <r>   13.5735    0.0000 </r>
       <r>   15.4685    0.0000 </r>
       <r>   16.1728    0.0000 </r>
       <r>   17.0926    0.0000 </r>
       <r>   18.8615    0.0000 </r>
      </set>
      <set comment="kpoint 64">
       <r>   -3.4913    1.0000 </r>
       <r>    1.7632    1.0000 </r>
       <r>    4.6606    1.0000 </r>
       <r>    5.9984    1.0000 </r>
       <r>    7.2017    1.0000 </r>
       <r>    7.7408    1.0000 </r>
       <r>    9.7186    1.0000 </r>
       <r>   10.5538    1.0000 </r>
       <r>   10.9830    0.0231 </r>
       <r>   12.1939    0.0000 </r>
       <r>   12.6348    0.0000 </r>
       <r>   13.7703    0.0000 </r>
       <r>   14.4857    0.0000 </r>
       <r>   16.8115    0.0000 </r>
       <r>   18.5453    0.0000 </r>
       <r>   18.5762    0.0000 </r>
      </set>
      <set comment="kpoint 65">
       <r>   -3.4304    1.0000 </r>
       <r>    1.8225    1.0000 </r>
       <r>    4.7185    1.0000 </r>
       <r>    5.0257    1.0000 </r>
       <r>    7.7947    1.0000 </r>
       <r>    8.2714    1.0000 </r>
       <r>    9.7821    1.0000 </r>
       <r>   10.0733    1.0000 </r>
       <r>   10.6067    0.9999 </r>
       <r>   12.6915    0.0000 </r>
       <r>   12.8305    0.0000 </r>
       <r>   13.1704    0.0000 </r>
       <r>   14.9011    0.0000 </r>
       <r>   16.9066    0.0000 </r>
       <r>   17.5899    0.0000 </r>
       <r>   18.6326    0.0000 </r>
      </set>
      <set comment="kpoint 66">
       <r>   -3.2478    1.0000 </r>
       <r>    2.0000    1.0000 </r>
       <r>    3.7284    1.0000 </r>
       <r>    4.8918    1.0000 </r>
       <r>    7.9387    1.0000 </r>
       <r>    8.8553    1.0000 </r>
       <r>    9.7402    1.0000 </r>
       <r>   10.0890    1.0000 </r>
       <r>   10.7525    0.9990 </r>
       <r>   11.6237    0.0000 </r>
       <r>   12.8626    0.0000 </r>
       <r>   14.3242    0.0000 </r>
       <r>   14.5264    0.0000 </r>
       <r>   16.4124    0.0000 </r>
       <r>   17.9660    0.0000 </r>
       <r>   18.0080    0.0000 </r>
      </set>
      <set comment="kpoint 67">
       <r>   -2.9438    1.0000 </r>
       <r>    2.2955    1.0000 </r>
       <r>    2.5041    1.0000 </r>
       <r>    5.1787    1.0000 </r>
       <r>    7.5601    1.0000 </r>
       <r>    8.3393    1.0000 </r>
       <r>   10.1936    1.0000 </r>
       <r>   10.3775    1.0000 </r>
       <r>   11.1035    0.0024 </r>
       <r>   11.6434    0.0000 </r>
       <r>   13.1574    0.0000 </r>
       <r>   13.3573    0.0000 </r>
       <r>   15.2883    0.0000 </r>
       <r>   15.3090    0.0000 </r>
       <r>   17.7767    0.0000 </r>
[...]
       <r>   17.6523    0.0000 </r>
       <r>   18.8197    0.0000 </r>
      </set>
      <set comment="kpoint 191">
       <r>    0.1648    1.0000 </r>
       <r>    0.9103    1.0000 </r>
       <r>    0.9103    1.0000 </r>
       <r>    1.6526    1.0000 </r>
       <r>    8.4742    1.0000 </r>
       <r>    9.1879    1.0000 </r>
       <r>    9.1879    1.0000 </r>
       <r>    9.8997    1.0000 </r>
       <r>   11.6974    0.0000 </r>
       <r>   12.3890    0.0000 </r>
       <r>   12.3890    0.0000 </r>
       <r>   13.0773    0.0000 </r>
       <r>   17.6102    0.0000 </r>
       <r>   17.7034    0.0000 </r>
       <r>   17.7034    0.0000 </r>
       <r>   18.8667    0.0000 </r>
      </set>
      <set comment="kpoint 192">
       <r>    0.3436    1.0000 </r>
       <r>    1.0881    1.0000 </r>
       <r>    1.0881    1.0000 </r>
       <r>    1.8292    1.0000 </r>
       <r>    7.2114    1.0000 </r>
       <r>    7.9297    1.0000 </r>
       <r>    7.9297    1.0000 </r>
       <r>    8.6462    1.0000 </r>
       <r>   13.2479    0.0000 </r>
       <r>   13.9239    0.0000 </r>
       <r>   13.9239    0.0000 </r>
       <r>   14.5983    0.0000 </r>
       <r>   17.7630    0.0000 </r>
       <r>   17.8559    0.0000 </r>
       <r>   17.8559    0.0000 </r>
       <r>   19.0048    0.0000 </r>
      </set>
      <set comment="kpoint 193">
       <r>    0.6411    1.0000 </r>
       <r>    1.3838    1.0000 </r>
       <r>    1.3838    1.0000 </r>
       <r>    2.1222    1.0000 </r>
       <r>    6.0153    1.0000 </r>
       <r>    6.7369    1.0000 </r>
       <r>    6.7369    1.0000 </r>
       <r>    7.4574    1.0000 </r>
       <r>   14.9099    0.0000 </r>
       <r>   15.5576    0.0000 </r>
       <r>   15.5576    0.0000 </r>
       <r>   16.2092    0.0000 </r>
       <r>   18.0148    0.0000 </r>
       <r>   18.1066    0.0000 </r>
       <r>   18.1066    0.0000 </r>
       <r>   19.2229    0.0000 </r>
      </set>
      <set comment="kpoint 194">
       <r>    1.0565    1.0000 </r>
       <r>    1.7959    1.0000 </r>
       <r>    1.7959    1.0000 </r>
       <r>    2.5280    1.0000 </r>
       <r>    4.9230    1.0000 </r>
       <r>    5.6439    1.0000 </r>
       <r>    5.6439    1.0000 </r>
       <r>    6.3668    1.0000 </r>
       <r>   16.6189    0.0000 </r>
       <r>   17.2041    0.0000 </r>
       <r>   17.2041    0.0000 </r>
       <r>   17.8199    0.0000 </r>
       <r>   18.3598    0.0000 </r>
       <r>   18.4488    0.0000 </r>
       <r>   18.4488    0.0000 </r>
       <r>   19.4879    0.0000 </r>
      </set>
      <set comment="kpoint 195">
       <r>    1.5880    1.0000 </r>
       <r>    2.3202    1.0000 </r>
       <r>    2.3202    1.0000 </r>
       <r>    3.0210    1.0000 </r>
       <r>    3.9679    1.0000 </r>
       <r>    4.6632    1.0000 </r>
       <r>    4.6632    1.0000 </r>
       <r>    5.3844    1.0000 </r>
       <r>   18.2863    0.0000 </r>
       <r>   18.6418    0.0000 </r>
       <r>   18.6418    0.0000 </r>
       <r>   18.7836    0.0000 </r>
       <r>   18.9174    0.0000 </r>
       <r>   18.9174    0.0000 </r>
       <r>   19.2667    0.0000 </r>
       <r>   19.6970    0.0000 </r>
      </set>
      <set comment="kpoint 196">
       <r>    2.2309    1.0000 </r>
       <r>    2.9277    1.0000 </r>
       <r>    2.9277    1.0000 </r>
       <r>    2.9529    1.0000 </r>
       <r>    3.8016    1.0000 </r>
       <r>    3.8268    1.0000 </r>
       <r>    3.8268    1.0000 </r>
       <r>    4.5182    1.0000 </r>
       <r>   19.1513    0.0000 </r>
       <r>   19.1513    0.0000 </r>
       <r>   19.2463    0.0000 </r>
       <r>   19.6264    0.0000 </r>
       <r>   19.6515    0.0000 </r>
       <r>   19.6515    0.0000 </r>
       <r>   19.6700    0.0000 </r>
       <r>   20.1082    0.0000 </r>
      </set>
     </set>
    </set>
   </array>
  </eigenvalues>
  <separator name="orbital magnetization" >
   <v name="MAGDIPOLOUT">      0.00000000      0.00000000      0.00000000</v>
  </separator>
  <dos>
   <i name="efermi">     10.92546524 </i>
   <total>
    <array>
     <dimension dim="1">gridpoints</dimension>
     <dimension dim="2">spin</dimension>
     <field>energy</field>
     <field>total</field>
     <field>integrated</field>
     <set>
      <set comment="spin 1">
       <r>    -5.3153     0.0000     0.0000 </r>
       <r>    -5.2245     0.0000     0.0000 </r>
       <r>    -5.1337     0.0000     0.0000 </r>
       <r>    -5.0430     0.0000     0.0000 </r>
       <r>    -4.9522     0.0000     0.0000 </r>
       <r>    -4.8614     0.0000     0.0000 </r>
       <r>    -4.7707     0.0000     0.0000 </r>
       <r>    -4.6799     0.0000     0.0000 </r>
       <r>    -4.5892     0.0000     0.0000 </r>
       <r>    -4.4984     0.0000     0.0000 </r>
       <r>    -4.4076     0.0000     0.0000 </r>
       <r>    -4.3169     0.0000     0.0000 </r>
       <r>    -4.2261     0.0003     0.0000 </r>
       <r>    -4.1354    -0.0020    -0.0002 </r>
       <r>    -4.0446     0.0178     0.0015 </r>
       <r>    -3.9538     0.1224     0.0126 </r>
       <r>    -3.8631     0.1280     0.0242 </r>
       <r>    -3.7723     0.2219     0.0443 </r>
       <r>    -3.6816     0.2954     0.0711 </r>
       <r>    -3.5908     0.1200     0.0820 </r>
       <r>    -3.5000     0.3748     0.1160 </r>
       <r>    -3.4093     0.3600     0.1487 </r>
       <r>    -3.3185     0.2395     0.1704 </r>
       <r>    -3.2277     0.4933     0.2152 </r>
       <r>    -3.1370     0.1803     0.2316 </r>
       <r>    -3.0462     0.4186     0.2696 </r>
       <r>    -2.9555     0.5433     0.3189 </r>
       <r>    -2.8647     0.4259     0.3575 </r>
       <r>    -2.7739     0.5424     0.4068 </r>
       <r>    -2.6832     0.1929     0.4243 </r>
       <r>    -2.5924     0.3752     0.4583 </r>
       <r>    -2.5017     0.7937     0.5304 </r>
       <r>    -2.4109     0.4136     0.5679 </r>
       <r>    -2.3201     0.7223     0.6335 </r>
       <r>    -2.2294     0.4338     0.6728 </r>
       <r>    -2.1386     0.2616     0.6966 </r>
       <r>    -2.0479     0.7226     0.7622 </r>
       <r>    -1.9571     0.6638     0.8224 </r>
       <r>    -1.8663     0.5359     0.8710 </r>
       <r>    -1.7756     0.5598     0.9218 </r>
       <r>    -1.6848     0.4842     0.9658 </r>
       <r>    -1.5940     0.9661     1.0535 </r>
       <r>    -1.5033     0.5892     1.1069 </r>
       <r>    -1.4125     0.6561     1.1665 </r>
       <r>    -1.3218     0.6573     1.2262 </r>
       <r>    -1.2310     0.2152     1.2457 </r>
       <r>    -1.1402     0.7515     1.3139 </r>
       <r>    -1.0495     0.9070     1.3962 </r>
       <r>    -0.9587     0.7684     1.4660 </r>
       <r>    -0.8680     0.9746     1.5544 </r>
       <r>    -0.7772     0.6117     1.6099 </r>
       <r>    -0.6864     0.6733     1.6710 </r>
       <r>    -0.5957     0.5994     1.7254 </r>
       <r>    -0.5049     0.6232     1.7820 </r>
       <r>    -0.4142     1.0055     1.8733 </r>
       <r>    -0.3234     0.5221     1.9206 </r>
       <r>    -0.2326     0.7956     1.9929 </r>
       <r>    -0.1419     1.0347     2.0868 </r>
       <r>    -0.0511     0.9503     2.1730 </r>
       <r>     0.0396     0.8088     2.2464 </r>
       <r>     0.1304     0.6277     2.3034 </r>
       <r>     0.2212     0.6411     2.3616 </r>
       <r>     0.3119     1.0699     2.4587 </r>
       <r>     0.4027     1.0165     2.5509 </r>
       <r>     0.4935     0.9509     2.6372 </r>
       <r>     0.5842     0.5147     2.6839 </r>
       <r>     0.6750     0.7437     2.7514 </r>
       <r>     0.7657     0.9602     2.8386 </r>
       <r>     0.8565     0.9290     2.9229 </r>
       <r>     0.9473     0.9975     3.0134 </r>
       <r>     1.0380     0.7501     3.0815 </r>
       <r>     1.1288     1.1519     3.1861 </r>
       <r>     1.2195     1.4820     3.3206 </r>
       <r>     1.3103     0.7957     3.3928 </r>
       <r>     1.4011     0.7675     3.4625 </r>
       <r>     1.4918     0.6349     3.5201 </r>
       <r>     1.5826     0.6402     3.5782 </r>
       <r>     1.6733     0.9964     3.6686 </r>
       <r>     1.7641     1.1507     3.7731 </r>
       <r>     1.8549     1.4075     3.9008 </r>
       <r>     1.9456     0.8600     3.9789 </r>
       <r>     2.0364     1.0596     4.0750 </r>
       <r>     2.1272     1.0584     4.1711 </r>
       <r>     2.2179     0.9456     4.2569 </r>
       <r>     2.3087     1.3310     4.3777 </r>
       <r>     2.3994     0.9007     4.4595 </r>
       <r>     2.4902     0.7958     4.5317 </r>
       <r>     2.5810     0.8889     4.6124 </r>
       <r>     2.6717     1.3888     4.7384 </r>
       <r>     2.7625     1.2623     4.8530 </r>
       <r>     2.8532     0.8116     4.9266 </r>
       <r>     2.9440     1.0763     5.0243 </r>
       <r>     3.0348     1.0929     5.1235 </r>
       <r>     3.1255     1.1574     5.2286 </r>
       <r>     3.2163     1.5149     5.3660 </r>
       <r>     3.3070     0.6460     5.4247 </r>
       <r>     3.3978     1.1798     5.5318 </r>
       <r>     3.4886     1.4625     5.6645 </r>
       <r>     3.5793     0.9649     5.7521 </r>
       <r>     3.6701     1.3975     5.8789 </r>
       <r>     3.7609     0.9353     5.9638 </r>
       <r>     3.8516     1.0658     6.0605 </r>
       <r>     3.9424     1.2252     6.1717 </r>
       <r>     4.0331     1.2815     6.2881 </r>
       <r>     4.1239     1.0671     6.3849 </r>
       <r>     4.2147     0.5986     6.4392 </r>
       <r>     4.3054     1.2434     6.5521 </r>
       <r>     4.3962     1.2445     6.6650 </r>
       <r>     4.4869     1.4171     6.7937 </r>
       <r>     4.5777     1.3428     6.9155 </r>
       <r>     4.6685     1.5568     7.0568 </r>
       <r>     4.7592     1.3517     7.1795 </r>
       <r>     4.8500     1.2776     7.2955 </r>
       <r>     4.9407     1.3219     7.4154 </r>
       <r>     5.0315     1.1949     7.5239 </r>
       <r>     5.1223     0.8762     7.6034 </r>
       <r>     5.2130     1.0945     7.7028 </r>
       <r>     5.3038     1.3687     7.8270 </r>
       <r>     5.3945     1.4866     7.9619 </r>
       <r>     5.4853     1.2522     8.0756 </r>
       <r>     5.5761     1.6696     8.2271 </r>
       <r>     5.6668     1.4695     8.3605 </r>
       <r>     5.7576     1.1653     8.4662 </r>
       <r>     5.8484     1.3260     8.5866 </r>
       <r>     5.9391     1.4627     8.7193 </r>
       <r>     6.0299     1.1177     8.8208 </r>
       <r>     6.1206     0.9912     8.9108 </r>
       <r>     6.2114     1.2640     9.0255 </r>
       <r>     6.3022     1.1936     9.1338 </r>
       <r>     6.3929     1.1848     9.2413 </r>
       <r>     6.4837     1.7425     9.3995 </r>
       <r>     6.5744     1.5671     9.5417 </r>
       <r>     6.6652     1.2278     9.6532 </r>
       <r>     6.7560     1.5355     9.7925 </r>
       <r>     6.8467     1.4424     9.9234 </r>
       <r>     6.9375     0.8548    10.0010 </r>
       <r>     7.0282     1.2705    10.1163 </r>
       <r>     7.1190     1.4302    10.2461 </r>
       <r>     7.2098     1.6430    10.3953 </r>
       <r>     7.3005     1.1472    10.4994 </r>
       <r>     7.3913     1.3251    10.6197 </r>
       <r>     7.4821     1.6039    10.7652 </r>
       <r>     7.5728     1.3587    10.8885 </r>
       <r>     7.6636     1.1862    10.9962 </r>
       <r>     7.7543     1.5073    11.1330 </r>
       <r>     7.8451     1.4583    11.2654 </r>
       <r>     7.9359     1.7785    11.4268 </r>
       <r>     8.0266     1.5693    11.5692 </r>
       <r>     8.1174     1.4541    11.7012 </r>
       <r>     8.2081     1.7002    11.8555 </r>
       <r>     8.2989     1.3664    11.9795 </r>
       <r>     8.3897     1.2062    12.0890 </r>
       <r>     8.4804     1.1808    12.1962 </r>
       <r>     8.5712     1.4096    12.3241 </r>
       <r>     8.6619     1.1414    12.4277 </r>
       <r>     8.7527     1.3795    12.5529 </r>
       <r>     8.8435     1.3630    12.6766 </r>
       <r>     8.9342     2.1076    12.8679 </r>
       <r>     9.0250     1.8875    13.0392 </r>
       <r>     9.1157     1.5526    13.1801 </r>
       <r>     9.2065     2.0128    13.3628 </r>
       <r>     9.2973     1.5092    13.4998 </r>
       <r>     9.3880     1.3299    13.6205 </r>
       <r>     9.4788     0.9806    13.7095 </r>
       <r>     9.5696     1.4015    13.8367 </r>
       <r>     9.6603     2.0324    14.0211 </r>
       <r>     9.7511     1.1749    14.1278 </r>
       <r>     9.8418     1.4480    14.2592 </r>
       <r>     9.9326     1.6889    14.4125 </r>
       <r>    10.0234     1.6674    14.5638 </r>
       <r>    10.1141     1.7602    14.7236 </r>
       <r>    10.2049     2.0188    14.9068 </r>
       <r>    10.2956     2.2394    15.1101 </r>
       <r>    10.3864     1.1796    15.2171 </r>
       <r>    10.4772     1.0040    15.3083 </r>
       <r>    10.5679     1.3534    15.4311 </r>
       <r>    10.6587     1.4142    15.5594 </r>
       <r>    10.7494     2.0881    15.7490 </r>
       <r>    10.8402     1.3462    15.8711 </r>
       <r>    10.9310     1.5337    16.0103 </r>
       <r>    11.0217     1.7550    16.1696 </r>
       <r>    11.1125     2.0737    16.3578 </r>
       <r>    11.2033     2.1251    16.5507 </r>
       <r>    11.2940     1.8411    16.7178 </r>
       <r>    11.3848     1.9097    16.8911 </r>
       <r>    11.4755     1.5609    17.0328 </r>
       <r>    11.5663     1.2074    17.1424 </r>
       <r>    11.6571     1.8837    17.3133 </r>
       <r>    11.7478     1.7327    17.4706 </r>
       <r>    11.8386     1.2820    17.5870 </r>
       <r>    11.9293     1.7225    17.7433 </r>
       <r>    12.0201     1.6553    17.8935 </r>
       <r>    12.1109     1.8679    18.0631 </r>
       <r>    12.2016     1.7925    18.2257 </r>
       <r>    12.2924     1.6167    18.3725 </r>
       <r>    12.3831     2.0728    18.5606 </r>
       <r>    12.4739     2.2736    18.7670 </r>
       <r>    12.5647     1.9257    18.9417 </r>
       <r>    12.6554     1.7876    19.1040 </r>
       <r>    12.7462     1.2514    19.2176 </r>
       <r>    12.8370     1.7083    19.3726 </r>
       <r>    12.9277     2.1328    19.5662 </r>
       <r>    13.0185     1.4632    19.6990 </r>
       <r>    13.1092     1.7035    19.8536 </r>
       <r>    13.2000     2.0028    20.0354 </r>
       <r>    13.2908     2.0887    20.2249 </r>
       <r>    13.3815     3.0689    20.5035 </r>
       <r>    13.4723     1.8873    20.6748 </r>
       <r>    13.5630     1.3399    20.7964 </r>
       <r>    13.6538     1.6286    20.9442 </r>
       <r>    13.7446     1.7212    21.1004 </r>
       <r>    13.8353     2.2229    21.3022 </r>
       <r>    13.9261     1.6722    21.4539 </r>
       <r>    14.0168     1.9774    21.6334 </r>
       <r>    14.1076     2.3892    21.8503 </r>
       <r>    14.1984     1.5263    21.9888 </r>
       <r>    14.2891     2.6903    22.2330 </r>
       <r>    14.3799     2.3762    22.4486 </r>
       <r>    14.4706     2.4215    22.6684 </r>
       <r>    14.5614     2.7262    22.9158 </r>
       <r>    14.6522     1.6133    23.0623 </r>
       <r>    14.7429     1.6922    23.2159 </r>
       <r>    14.8337     1.5669    23.3581 </r>
       <r>    14.9245     2.2633    23.5635 </r>
       <r>    15.0152     2.1900    23.7623 </r>
       <r>    15.1060     2.0697    23.9501 </r>
       <r>    15.1967     1.9530    24.1274 </r>
       <r>    15.2875     2.1181    24.3196 </r>
       <r>    15.3783     2.3251    24.5306 </r>
       <r>    15.4690     2.2961    24.7390 </r>
       <r>    15.5598     2.1132    24.9308 </r>
       <r>    15.6505     1.5843    25.0746 </r>
       <r>    15.7413     1.7584    25.2342 </r>
       <r>    15.8321     1.8637    25.4034 </r>
       <r>    15.9228     1.1457    25.5074 </r>
       <r>    16.0136     1.3179    25.6270 </r>
       <r>    16.1043     2.2015    25.8268 </r>
       <r>    16.1951     2.1547    26.0223 </r>
       <r>    16.2859     1.9763    26.2017 </r>
       <r>    16.3766     1.5872    26.3458 </r>
       <r>    16.4674     2.3899    26.5627 </r>
       <r>    16.5582     2.2210    26.7642 </r>
       <r>    16.6489     1.9692    26.9430 </r>
       <r>    16.7397     1.7503    27.1018 </r>
       <r>    16.8304     0.9071    27.1842 </r>
       <r>    16.9212     1.8389    27.3511 </r>
       <r>    17.0120     2.2845    27.5584 </r>
       <r>    17.1027     1.5799    27.7018 </r>
       <r>    17.1935     1.7021    27.8563 </r>
       <r>    17.2842     1.8725    28.0262 </r>
       <r>    17.3750     2.2081    28.2266 </r>
       <r>    17.4658     1.7415    28.3847 </r>
       <r>    17.5565     1.7783    28.5461 </r>
       <r>    17.6473     1.6648    28.6972 </r>
       <r>    17.7380     1.6966    28.8512 </r>
       <r>    17.8288     1.6607    29.0019 </r>
       <r>    17.9196     1.8477    29.1696 </r>
       <r>    18.0103     2.2530    29.3741 </r>
       <r>    18.1011     1.4426    29.5050 </r>
       <r>    18.1918     1.6408    29.6539 </r>
       <r>    18.2826     2.1823    29.8520 </r>
       <r>    18.3734     1.4727    29.9857 </r>
       <r>    18.4641     1.3867    30.1115 </r>
       <r>    18.5549     1.5241    30.2499 </r>
       <r>    18.6457     2.0742    30.4381 </r>
       <r>    18.7364     1.4033    30.5655 </r>
       <r>    18.8272     1.2201    30.6762 </r>
       <r>    18.9179     1.2633    30.7909 </r>
       <r>    19.0087     1.0660    30.8877 </r>
       <r>    19.0995     1.4170    31.0163 </r>
       <r>    19.1902     1.2738    31.1319 </r>
       <r>    19.2810     1.4995    31.2680 </r>
       <r>    19.3717     0.7911    31.3398 </r>
       <r>    19.4625     0.6873    31.4021 </r>
       <r>    19.5533     0.7529    31.4705 </r>
       <r>    19.6440     1.2144    31.5807 </r>
       <r>    19.7348     1.1424    31.6844 </r>
       <r>    19.8255     0.6737    31.7455 </r>
       <r>    19.9163     0.5794    31.7981 </r>
       <r>    20.0071     0.7033    31.8620 </r>
       <r>    20.0978     0.9124    31.9448 </r>
       <r>    20.1886     0.1781    31.9609 </r>
       <r>    20.2794     0.1491    31.9745 </r>
       <r>    20.3701     0.1532    31.9884 </r>
       <r>    20.4609     0.0550    31.9934 </r>
       <r>    20.5516    -0.0108    31.9924 </r>
       <r>    20.6424     0.0178    31.9940 </r>
       <r>    20.7332     0.0642    31.9998 </r>
       <r>    20.8239     0.0027    32.0001 </r>
       <r>    20.9147    -0.0012    32.0000 </r>
       <r>    21.0054     0.0002    32.0000 </r>
       <r>    21.0962     0.0000    32.0000 </r>
       <r>    21.1870     0.0000    32.0000 </r>
       <r>    21.2777     0.0000    32.0000 </r>
       <r>    21.3685     0.0000    32.0000 </r>
       <r>    21.4592     0.0000    32.0000 </r>
       <r>    21.5500     0.0000    32.0000 </r>
       <r>    21.6408     0.0000    32.0000 </r>
       <r>    21.7315     0.0000    32.0000 </r>
       <r>    21.8223     0.0000    32.0000 </r>
       <r>    21.9131     0.0000    32.0000 </r>
      </set>
     </set>
    </array>
   </total>
  </dos>
 </calculation>
 <structure name="finalpos" >
  <crystal>
   <varray name="basis" >
    <v>       3.75230206       0.00000000       0.00000000 </v>
    <v>       0.00000000       3.82887966       0.00000000 </v>
    <v>       0.00000000       0.00000000       3.82887966 </v>
   </varray>
   <i name="volume">     55.00994688 </i>
   <varray name="rec_basis" >
    <v>       0.26650306       0.00000000       0.00000000 </v>
    <v>       0.00000000       0.26117300       0.00000000 </v>
    <v>       0.00000000       0.00000000       0.26117300 </v>
   </varray>
  </crystal>
  <varray name="positions" >
   <v>       0.00000000       0.00000000       0.00000000 </v>
   <v>       0.50000000       0.50000000       0.00000000 </v>
   <v>       0.50000000       0.00000000       0.50000000 </v>
   <v>       0.00000000       0.50000000       0.50000000 </v>
  </varray>
 </structure>
</modeling>
