<?xml version="1.0" encoding="ISO-8859-1"?>
<modeling>
 <generator>
  <i name="program" type="string">vasp </i>
  <i name="version" type="string">5.4.1  </i>
  <i name="subversion" type="string">24Jun15 (build Jul  8 2015 13:29:37) complex                          parallel </i>
  <i name="platform" type="string">FX10FRT </i>
  <i name="date" type="string">2016 02 20 </i>
  <i name="time" type="string">07:06:42 </i>
 </generator>
 <incar>
  <i type="string" name="PREC">accurate</i>
  <i type="string" name="ALGO"> Normal</i>
  <i type="int" name="ISPIN">     1</i>
  <i type="int" name="IBRION">    -1</i>
  <i name="EDIFF">      0.00010000</i>
  <i type="int" name="NSW">     0</i>
  <i type="int" name="ISIF">     2</i>
  <i name="ENCUT">    400.00000000</i>
  <i type="int" name="ISMEAR">     2</i>
  <i name="SIGMA">      0.10000000</i>
  <i type="int" name="NWRITE">     1</i>
  <v type="int" name="KPOINT_BSE">    -1     0     0     0</v>
 </incar>
 <kpoints>
  <generation param="Monkhorst-Pack">
   <v type="int" name="divisions">       9        9        9 </v>
   <v name="usershift">      0.00000000       0.00000000       0.00000000 </v>
   <v name="genvec1">      0.11111111       0.00000000       0.00000000 </v>
   <v name="genvec2">      0.00000000       0.11111111       0.00000000 </v>
   <v name="genvec3">      0.00000000       0.00000000       0.11111111 </v>
   <v name="shift">      0.00000000       0.00000000       0.00000000 </v>
  </generation>
  <varray name="kpointlist" >
   <v>       0.00000000       0.00000000       0.00000000 </v>
   <v>       0.11111111       0.00000000       0.00000000 </v>
   <v>       0.22222222       0.00000000       0.00000000 </v>
   <v>       0.33333333       0.00000000       0.00000000 </v>
   <v>       0.44444444       0.00000000       0.00000000 </v>
   <v>       0.11111111       0.11111111       0.00000000 </v>
   <v>       0.22222222       0.11111111       0.00000000 </v>
   <v>       0.33333333       0.11111111       0.00000000 </v>
   <v>       0.44444444       0.11111111       0.00000000 </v>
   <v>       0.22222222       0.22222222       0.00000000 </v>
   <v>       0.33333333       0.22222222       0.00000000 </v>
   <v>       0.44444444       0.22222222       0.00000000 </v>
   <v>       0.33333333       0.33333333       0.00000000 </v>
   <v>       0.44444444       0.33333333       0.00000000 </v>
   <v>       0.44444444       0.44444444       0.00000000 </v>
   <v>       0.11111111       0.11111111       0.11111111 </v>
   <v>       0.22222222       0.11111111       0.11111111 </v>
   <v>       0.33333333       0.11111111       0.11111111 </v>
   <v>       0.44444444       0.11111111       0.11111111 </v>
   <v>       0.22222222       0.22222222       0.11111111 </v>
   <v>       0.33333333       0.22222222       0.11111111 </v>
   <v>       0.44444444       0.22222222       0.11111111 </v>
   <v>       0.33333333       0.33333333       0.11111111 </v>
   <v>       0.44444444       0.33333333       0.11111111 </v>
   <v>       0.44444444       0.44444444       0.11111111 </v>
   <v>       0.22222222       0.22222222       0.22222222 </v>
   <v>       0.33333333       0.22222222       0.22222222 </v>
   <v>       0.44444444       0.22222222       0.22222222 </v>
   <v>       0.33333333       0.33333333       0.22222222 </v>
   <v>       0.44444444       0.33333333       0.22222222 </v>
   <v>       0.44444444       0.44444444       0.22222222 </v>
   <v>       0.33333333       0.33333333       0.33333333 </v>
   <v>       0.44444444       0.33333333       0.33333333 </v>
   <v>       0.44444444       0.44444444       0.33333333 </v>
   <v>       0.44444444       0.44444444       0.44444444 </v>
  </varray>
  <varray name="weights" >
   <v>       0.00137174 </v>
   <v>       0.00823045 </v>
   <v>       0.00823045 </v>
   <v>       0.00823045 </v>
   <v>       0.00823045 </v>
   <v>       0.01646091 </v>
   <v>       0.03292181 </v>
   <v>       0.03292181 </v>
   <v>       0.03292181 </v>
   <v>       0.01646091 </v>
   <v>       0.03292181 </v>
   <v>       0.03292181 </v>
   <v>       0.01646091 </v>
   <v>       0.03292181 </v>
   <v>       0.01646091 </v>
   <v>       0.01097394 </v>
   <v>       0.03292181 </v>
   <v>       0.03292181 </v>
   <v>       0.03292181 </v>
   <v>       0.03292181 </v>
   <v>       0.06584362 </v>
   <v>       0.06584362 </v>
   <v>       0.03292181 </v>
   <v>       0.06584362 </v>
   <v>       0.03292181 </v>
   <v>       0.01097394 </v>
   <v>       0.03292181 </v>
   <v>       0.03292181 </v>
   <v>       0.03292181 </v>
   <v>       0.06584362 </v>
   <v>       0.03292181 </v>
   <v>       0.01097394 </v>
   <v>       0.03292181 </v>
   <v>       0.03292181 </v>
   <v>       0.01097394 </v>
  </varray>
 </kpoints>
 <parameters>
  <separator name="general" >
   <i type="string" name="SYSTEM">unknown system</i>
   <i type="logical" name="LCOMPAT"> F  </i>
  </separator>
  <separator name="electronic" >
   <i type="string" name="PREC">accura</i>
   <i name="ENMAX">    400.00000000</i>
   <i name="ENAUG">    322.06900000</i>
   <i name="EDIFF">      0.00010000</i>
   <i type="int" name="IALGO">    38</i>
   <i type="int" name="IWAVPR">    10</i>
   <i type="int" name="NBANDS">    24</i>
   <i name="NELECT">     32.00000000</i>
   <i type="int" name="TURBO">     0</i>
   <i type="int" name="IRESTART">     0</i>
   <i type="int" name="NREBOOT">     0</i>
   <i type="int" name="NMIN">     0</i>
   <i name="EREF">      0.00000000</i>
   <separator name="electronic smearing" >
    <i type="int" name="ISMEAR">     2</i>
    <i name="SIGMA">      0.10000000</i>
    <i name="KSPACING">      0.50000000</i>
    <i type="logical" name="KGAMMA"> T  </i>
   </separator>
   <separator name="electronic projectors" >
    <i type="logical" name="LREAL"> F  </i>
    <v name="ROPT">      0.00000000</v>
    <i type="int" name="LMAXPAW">  -100</i>
    <i type="int" name="LMAXMIX">     2</i>
    <i type="logical" name="NLSPLINE"> F  </i>
   </separator>
   <separator name="electronic startup" >
    <i type="int" name="ISTART">     0</i>
    <i type="int" name="ICHARG">     2</i>
    <i type="int" name="INIWAV">     1</i>
   </separator>
   <separator name="electronic spin" >
    <i type="int" name="ISPIN">     1</i>
    <i type="logical" name="LNONCOLLINEAR"> F  </i>
    <v name="MAGMOM">      1.00000000      1.00000000      1.00000000      1.00000000      1.00000000      1.00000000      1.00000000      1.00000000</v>
    <i name="NUPDOWN">     -1.00000000</i>
    <i type="logical" name="LSORBIT"> F  </i>
    <v name="SAXIS">      0.00000000      0.00000000      1.00000000</v>
    <i type="logical" name="LSPIRAL"> F  </i>
    <v name="QSPIRAL">      0.00000000      0.00000000      0.00000000</v>
    <i type="logical" name="LZEROZ"> F  </i>
   </separator>
   <separator name="electronic exchange-correlation" >
    <i type="logical" name="LASPH"> F  </i>
    <i type="logical" name="LMETAGGA"> F  </i>
   </separator>
   <separator name="electronic convergence" >
    <i type="int" name="NELM">    60</i>
    <i type="int" name="NELMDL">    -5</i>
    <i type="int" name="NELMIN">     2</i>
    <i name="ENINI">    400.00000000</i>
    <separator name="electronic convergence detail" >
     <i type="logical" name="LDIAG"> T  </i>
     <i type="logical" name="LSUBROT"> F  </i>
     <i name="WEIMIN">      0.00000000</i>
     <i name="EBREAK">      0.00000104</i>
     <i name="DEPER">      0.30000000</i>
     <i type="int" name="NRMM">     4</i>
     <i name="TIME">      0.40000000</i>
    </separator>
   </separator>
   <separator name="electronic mixer" >
    <i name="AMIX">      0.40000000</i>
    <i name="BMIX">      1.00000000</i>
    <i name="AMIN">      0.10000000</i>
    <i name="AMIX_MAG">      1.60000000</i>
    <i name="BMIX_MAG">      1.00000000</i>
    <separator name="electronic mixer details" >
     <i type="int" name="IMIX">     4</i>
     <i type="logical" name="MIXFIRST"> F  </i>
     <i type="int" name="MAXMIX">   -45</i>
     <i name="WC">    100.00000000</i>
     <i type="int" name="INIMIX">     1</i>
     <i type="int" name="MIXPRE">     1</i>
     <i type="int" name="MREMOVE">     5</i>
    </separator>
   </separator>
   <separator name="electronic dipolcorrection" >
    <i type="logical" name="LDIPOL"> F  </i>
    <i type="logical" name="LMONO"> F  </i>
    <i type="int" name="IDIPOL">     0</i>
    <i name="EPSILON">      1.00000000</i>
    <v name="DIPOL">   -100.00000000   -100.00000000   -100.00000000</v>
    <i name="EFIELD">      0.00000000</i>
   </separator>
  </separator>
  <separator name="grids" >
   <i type="int" name="NGX">    36</i>
   <i type="int" name="NGY">    36</i>
   <i type="int" name="NGZ">    36</i>
   <i type="int" name="NGXF">    72</i>
   <i type="int" name="NGYF">    72</i>
   <i type="int" name="NGZF">    72</i>
   <i type="logical" name="ADDGRID"> F  </i>
  </separator>
  <separator name="ionic" >
   <i type="int" name="NSW">     0</i>
   <i type="int" name="IBRION">    -1</i>
   <i type="int" name="ISIF">     2</i>
   <i name="PSTRESS">      0.00000000</i>
   <i name="EDIFFG">      0.00100000</i>
   <i type="int" name="NFREE">     0</i>
   <i name="POTIM">      0.50000000</i>
   <i name="SMASS">     -3.00000000</i>
   <i name="SCALEE">      1.00000000</i>
  </separator>
  <separator name="ionic md" >
   <i name="TEBEG">      0.00010000</i>
   <i name="TEEND">      0.00010000</i>
   <i type="int" name="NBLOCK">     1</i>
   <i type="int" name="KBLOCK">     1</i>
   <i type="int" name="NPACO">   256</i>
   <i name="APACO">     16.00000000</i>
  </separator>
  <separator name="symmetry" >
   <i type="int" name="ISYM">     2</i>
   <i name="SYMPREC">      0.00001000</i>
  </separator>
  <separator name="dos" >
   <i type="logical" name="LORBIT"> F  </i>
   <v name="RWIGS">     -1.00000000</v>
   <i type="int" name="NEDOS">   301</i>
   <i name="EMIN">     10.00000000</i>
   <i name="EMAX">    -10.00000000</i>
   <i name="EFERMI">      0.00000000</i>
  </separator>
  <separator name="writing" >
   <i type="int" name="NWRITE">     1</i>
   <i type="logical" name="LWAVE"> T  </i>
   <i type="logical" name="LCHARG"> T  </i>
   <i type="logical" name="LPARD"> F  </i>
   <i type="logical" name="LVTOT"> F  </i>
   <i type="logical" name="LVHAR"> F  </i>
   <i type="logical" name="LELF"> F  </i>
   <i type="logical" name="LOPTICS"> F  </i>
   <v name="STM">      0.00000000      0.00000000      0.00000000      0.00000000      0.00000000      0.00000000      0.00000000</v>
  </separator>
  <separator name="performance" >
   <i type="int" name="NPAR">     8</i>
   <i type="int" name="NSIM">     4</i>
   <i type="int" name="NBLK">    -1</i>
   <i type="logical" name="LPLANE"> T  </i>
   <i type="logical" name="LSCALAPACK"> T  </i>
   <i type="logical" name="LSCAAWARE"> F  </i>
   <i type="logical" name="LSCALU"> F  </i>
   <i type="logical" name="LASYNC"> F  </i>
   <i type="logical" name="LORBITALREAL"> F  </i>
  </separator>
  <separator name="miscellaneous" >
   <i type="int" name="IDIOT">     3</i>
   <i type="logical" name="LMUSIC"> F  </i>
   <v name="POMASS">     28.08500000</v>
   <v name="DARWINR">      0.00000000</v>
   <v name="DARWINV">      1.00000000</v>
   <i type="logical" name="LCORR"> T  </i>
  </separator>
  <i type="logical" name="GGA_COMPAT"> T  </i>
  <i type="logical" name="LBERRY"> F  </i>
  <i type="int" name="ICORELEVEL">     0</i>
  <i type="logical" name="LDAU"> F  </i>
  <i type="int" name="I_CONSTRAINED_M">     0</i>
  <separator name="electronic exchange-correlation" >
   <i type="string" name="GGA">--</i>
   <i type="int" name="VOSKOWN">     0</i>
   <i type="logical" name="LHFCALC"> F  </i>
   <i type="string" name="PRECFOCK"></i>
   <i type="logical" name="LSYMGRAD"> F  </i>
   <i type="logical" name="LHFONE"> F  </i>
   <i type="logical" name="LRHFCALC"> F  </i>
   <i type="logical" name="LTHOMAS"> F  </i>
   <i type="logical" name="LMODELHF"> F  </i>
   <i name="ENCUT4O">     -1.00000000</i>
   <i type="int" name="EXXOEP">     0</i>
   <i type="int" name="FOURORBIT">     0</i>
   <i name="AEXX">      0.00000000</i>
   <i name="HFALPHA">      0.00000000</i>
   <i name="MCALPHA">      0.00000000</i>
   <i name="ALDAX">      1.00000000</i>
   <i name="AGGAX">      1.00000000</i>
   <i name="ALDAC">      1.00000000</i>
   <i name="AGGAC">      1.00000000</i>
   <i type="int" name="NKREDX">     1</i>
   <i type="int" name="NKREDY">     1</i>
   <i type="int" name="NKREDZ">     1</i>
   <i type="logical" name="SHIFTRED"> F  </i>
   <i type="logical" name="ODDONLY"> F  </i>
   <i type="logical" name="EVENONLY"> F  </i>
   <i type="int" name="LMAXFOCK">     0</i>
   <i type="int" name="NMAXFOCKAE">     0</i>
   <i type="logical" name="LFOCKAEDFT"> F  </i>
   <i name="HFSCREEN">      0.00000000</i>
   <i name="HFSCREENC">      0.00000000</i>
   <i type="int" name="NBANDSGWLOW">     0</i>
  </separator>
  <separator name="vdW DFT" >
   <i type="logical" name="LUSE_VDW"> F  </i>
   <i name="Zab_VDW">     -0.84910000</i>
   <i name="PARAM1">      0.12340000</i>
   <i name="PARAM2">      1.00000000</i>
   <i name="PARAM3">      0.00000000</i>
  </separator>
  <separator name="model GW" >
   <i type="int" name="MODEL_GW">     0</i>
   <i name="MODEL_EPS0">     12.64050536</i>
   <i name="MODEL_ALPHA">      1.00000000</i>
  </separator>
  <separator name="linear response parameters" >
   <i type="logical" name="LEPSILON"> F  </i>
   <i type="logical" name="LRPA"> F  </i>
   <i type="logical" name="LNABLA"> F  </i>
   <i type="logical" name="LVEL"> F  </i>
   <i type="int" name="KINTER">     0</i>
   <i name="CSHIFT">      0.10000000</i>
   <i name="OMEGAMAX">     -1.00000000</i>
   <i name="DEG_THRESHOLD">      0.00200000</i>
  </separator>
  <separator name="orbital magnetization" >
   <i type="logical" name="NUCIND"> F  </i>
   <v name="MAGPOS">      0.00000000      0.00000000      0.00000000</v>
   <i type="logical" name="LNICSALL"> T  </i>
   <i type="logical" name="ORBITALMAG"> F  </i>
   <i type="logical" name="LMAGBLOCH"> F  </i>
   <i type="logical" name="LCHIMAG"> F  </i>
   <i type="logical" name="LGAUGE"> T  </i>
   <i type="int" name="MAGATOM">     0</i>
   <v name="MAGDIPOL">      0.00000000      0.00000000      0.00000000</v>
   <v name="AVECCONST">      0.00000000      0.00000000      0.00000000</v>
  </separator>
  <separator name="response functions" >
   <i type="logical" name="LADDER"> F  </i>
   <i type="logical" name="LFXC"> F  </i>
   <i type="logical" name="LHARTREE"> T  </i>
   <i type="int" name="IBSE">     0</i>
   <v type="int" name="KPOINT">    -1     0     0     0</v>
   <i type="logical" name="LTCTE"> F  </i>
   <i type="logical" name="LTETE"> F  </i>
   <i type="logical" name="LTRIPLET"> F  </i>
   <i type="logical" name="LFXCEPS"> F  </i>
   <i type="logical" name="LFXHEG"> F  </i>
   <i type="int" name="NATURALO">     0</i>
   <i type="logical" name="L2ORDER"> F  </i>
   <i type="logical" name="LUSEW"> F  </i>
   <i name="ENCUTGW">     -2.00000000</i>
   <i name="ENCUTGWSOFT">     -2.00000000</i>
   <i name="ENCUTLF">     -1.00000000</i>
   <i type="int" name="LMAXMP2">    -1</i>
   <i name="SCISSOR">      0.00000000</i>
   <i type="int" name="NOMEGA">     0</i>
   <i type="int" name="NOMEGAR">     0</i>
   <i type="int" name="NBANDSGW">    -1</i>
   <i type="int" name="NBANDSO">    -1</i>
   <i type="int" name="NBANDSV">    -1</i>
   <i type="int" name="NELM">     1</i>
   <i type="int" name="NELMHF">     1</i>
   <i type="int" name="DIM">     3</i>
   <i type="int" name="ANTIRES">     0</i>
   <i name="OMEGAMAX">    -30.00000000</i>
   <i name="OMEGAMIN">    -30.00000000</i>
   <i name="OMEGATL">   -200.00000000</i>
   <i type="int" name="OMEGAGRID">     0</i>
   <i name="CSHIFT">     -0.10000000</i>
   <i type="logical" name="SELFENERGY"> F  </i>
   <i type="logical" name="LSPECTRAL"> F  </i>
   <i type="logical" name="LSPECTRALGW"> F  </i>
   <i type="logical" name="LSINGLES"> F  </i>
   <i type="logical" name="LFERMIGW"> F  </i>
   <i type="logical" name="ODDONLYGW"> F  </i>
   <i type="logical" name="EVENONLYGW"> F  </i>
   <i type="int" name="NKREDLFX">     1</i>
   <i type="int" name="NKREDLFY">     1</i>
   <i type="int" name="NKREDLFZ">     1</i>
   <i type="int" name="MAXMEM">  1800</i>
   <i type="int" name="TELESCOPE">     0</i>
   <i type="int" name="TAUPAR">     1</i>
   <i type="int" name="OMEGAPAR">    -1</i>
   <i name="LAMBDA">      1.00000000</i>
  </separator>
  <separator name="External order field" >
   <i name="OFIELD_KAPPA">      0.00000000</i>
   <v name="OFIELD_K">      0.00000000      0.00000000      0.00000000</v>
   <i name="OFIELD_Q6_NEAR">      0.00000000</i>
   <i name="OFIELD_Q6_FAR">      0.00000000</i>
   <i name="OFIELD_A">      0.00000000</i>
  </separator>
 </parameters>
 <atominfo>
  <atoms>       8 </atoms>
  <types>       1 </types>
  <array name="atoms" >
   <dimension dim="1">ion</dimension>
   <field type="string">element</field>
   <field type="int">atomtype</field>
   <set>
    <rc><c>Si</c><c>   1</c></rc>
    <rc><c>Si</c><c>   1</c></rc>
    <rc><c>Si</c><c>   1</c></rc>
    <rc><c>Si</c><c>   1</c></rc>
    <rc><c>Si</c><c>   1</c></rc>
    <rc><c>Si</c><c>   1</c></rc>
    <rc><c>Si</c><c>   1</c></rc>
    <rc><c>Si</c><c>   1</c></rc>
   </set>
  </array>
  <array name="atomtypes" >
   <dimension dim="1">type</dimension>
   <field type="int">atomspertype</field>
   <field type="string">element</field>
   <field>mass</field>
   <field>valence</field>
   <field type="string">pseudopotential</field>
   <set>
    <rc><c>   8</c><c>Si</c><c>     28.08500000</c><c>      4.00000000</c><c>  PAW_PBE Si 05Jan2001                  </c></rc>
   </set>
  </array>
 </atominfo>
 <structure name="initialpos" >
  <crystal>
   <varray name="basis" >
    <v>       5.52375479       0.00000000       0.00000000 </v>
    <v>       0.00000000       5.52375479       0.00000000 </v>
    <v>       0.00000000       0.00000000       5.52375479 </v>
   </varray>
   <i name="volume">    168.54007152 </i>
   <varray name="rec_basis" >
    <v>       0.18103628       0.00000000       0.00000000 </v>
    <v>       0.00000000       0.18103628       0.00000000 </v>
    <v>       0.00000000       0.00000000       0.18103628 </v>
   </varray>
  </crystal>
  <varray name="positions" >
   <v>       0.00000000       0.00000000       0.00000000 </v>
   <v>       0.25000000       0.25000000       0.25000000 </v>
   <v>       0.50000000       0.50000000       0.00000000 </v>
   <v>       0.75000000       0.75000000       0.25000000 </v>
   <v>       0.50000000       0.00000000       0.50000000 </v>
   <v>       0.75000000       0.25000000       0.75000000 </v>
   <v>       0.00000000       0.50000000       0.50000000 </v>
   <v>       0.25000000       0.75000000       0.75000000 </v>
  </varray>
 </structure>
 <calculation>
  <scstep>
   <time name="dav">    0.86    0.94</time>
   <time name="total">    0.95    1.03</time>
   <energy>
    <i name="alphaZ">     12.78295631 </i>
    <i name="ewald">   -898.73648037 </i>
    <i name="hartreedc">    -47.14130651 </i>
    <i name="XCdc">    -75.20269797 </i>
    <i name="pawpsdc">    704.99039692 </i>
    <i name="pawaedc">   -564.24414232 </i>
    <i name="eentropy">     -0.00046289 </i>
    <i name="bandstr">     99.44805199 </i>
    <i name="atom">    824.52596983 </i>
    <i name="e_fr_energy">     56.42228500 </i>
    <i name="e_wo_entrp">     56.42274788 </i>
    <i name="e_0_energy">     56.42240072 </i>
   </energy>
  </scstep>
  <scstep>
   <time name="dav">    1.03    1.04</time>
   <time name="total">    1.04    1.07</time>
   <energy>
    <i name="e_fr_energy">    -39.57724578 </i>
    <i name="e_wo_entrp">    -39.57733770 </i>
    <i name="e_0_energy">    -39.57726876 </i>
   </energy>
  </scstep>
  <scstep>
   <time name="dav">    1.00    1.02</time>
   <time name="total">    1.03    1.03</time>
   <energy>
    <i name="e_fr_energy">    -43.88875455 </i>
    <i name="e_wo_entrp">    -43.88884212 </i>
    <i name="e_0_energy">    -43.88877644 </i>
   </energy>
  </scstep>
  <scstep>
   <time name="dav">    1.00    1.00</time>
   <time name="total">    1.00    1.02</time>
   <energy>
    <i name="e_fr_energy">    -43.96414553 </i>
    <i name="e_wo_entrp">    -43.96422527 </i>
    <i name="e_0_energy">    -43.96416546 </i>
   </energy>
  </scstep>
  <scstep>
   <time name="dav">    1.03    1.03</time>
   <time name="total">    1.11    1.13</time>
   <energy>
    <i name="e_fr_energy">    -43.96609291 </i>
    <i name="e_wo_entrp">    -43.96617323 </i>
    <i name="e_0_energy">    -43.96611299 </i>
   </energy>
  </scstep>
  <scstep>
   <time name="dav">    0.96    0.95</time>
   <time name="total">    1.05    1.06</time>
   <energy>
    <i name="e_fr_energy">    -43.55019283 </i>
    <i name="e_wo_entrp">    -43.55027976 </i>
    <i name="e_0_energy">    -43.55021456 </i>
   </energy>
  </scstep>
  <scstep>
   <time name="dav">    0.99    0.98</time>
   <time name="total">    1.08    1.09</time>
   <energy>
    <i name="e_fr_energy">    -43.35320020 </i>
    <i name="e_wo_entrp">    -43.35329852 </i>
    <i name="e_0_energy">    -43.35322478 </i>
   </energy>
  </scstep>
  <scstep>
   <time name="dav">    0.99    0.98</time>
   <time name="total">    1.08    1.09</time>
   <energy>
    <i name="e_fr_energy">    -43.35801800 </i>
    <i name="e_wo_entrp">    -43.35811607 </i>
    <i name="e_0_energy">    -43.35804252 </i>
   </energy>
  </scstep>
  <scstep>
   <time name="dav">    1.03    1.02</time>
   <time name="total">    1.12    1.13</time>
   <energy>
    <i name="e_fr_energy">    -43.35885735 </i>
    <i name="e_wo_entrp">    -43.35895584 </i>
    <i name="e_0_energy">    -43.35888198 </i>
   </energy>
  </scstep>
  <scstep>
   <time name="dav">    0.93    0.93</time>
   <time name="total">    1.03    1.05</time>
   <energy>
    <i name="e_fr_energy">    -43.35907899 </i>
    <i name="e_wo_entrp">    -43.35917761 </i>
    <i name="e_0_energy">    -43.35910364 </i>
   </energy>
  </scstep>
  <scstep>
   <time name="dav">    0.74    0.75</time>
   <time name="total">    0.78    0.79</time>
   <energy>
    <i name="alphaZ">     12.78295631 </i>
    <i name="ewald">   -898.73648037 </i>
    <i name="hartreedc">    -62.12439269 </i>
    <i name="XCdc">    -72.78031469 </i>
    <i name="pawpsdc">   3098.12959599 </i>
    <i name="pawaedc">  -2958.10570818 </i>
    <i name="eentropy">      0.00009861 </i>
    <i name="bandstr">     12.94919566 </i>
    <i name="atom">    824.52596983 </i>
    <i name="e_fr_energy">    -43.35907953 </i>
    <i name="e_wo_entrp">    -43.35917815 </i>
    <i name="e_0_energy">    -43.35910419 </i>
   </energy>
  </scstep>
  <structure>
   <crystal>
    <varray name="basis" >
     <v>       5.52375479       0.00000000       0.00000000 </v>
     <v>       0.00000000       5.52375479       0.00000000 </v>
     <v>       0.00000000       0.00000000       5.52375479 </v>
    </varray>
    <i name="volume">    168.54007152 </i>
    <varray name="rec_basis" >
     <v>       0.18103628       0.00000000       0.00000000 </v>
     <v>       0.00000000       0.18103628       0.00000000 </v>
     <v>       0.00000000       0.00000000       0.18103628 </v>
    </varray>
   </crystal>
   <varray name="positions" >
    <v>       0.00000000       0.00000000       0.00000000 </v>
    <v>       0.25000000       0.25000000       0.25000000 </v>
    <v>       0.50000000       0.50000000       0.00000000 </v>
    <v>       0.75000000       0.75000000       0.25000000 </v>
    <v>       0.50000000       0.00000000       0.50000000 </v>
    <v>       0.75000000       0.25000000       0.75000000 </v>
    <v>       0.00000000       0.50000000       0.50000000 </v>
    <v>       0.25000000       0.75000000       0.75000000 </v>
   </varray>
  </structure>
  <varray name="forces" >
   <v>       0.00000000       0.00000000       0.00000000 </v>
   <v>       0.00000000       0.00000000       0.00000000 </v>
   <v>       0.00000000       0.00000000       0.00000000 </v>
   <v>       0.00000000       0.00000000       0.00000000 </v>
   <v>       0.00000000       0.00000000       0.00000000 </v>
   <v>       0.00000000       0.00000000       0.00000000 </v>
   <v>       0.00000000       0.00000000       0.00000000 </v>
   <v>       0.00000000       0.00000000       0.00000000 </v>
  </varray>
  <varray name="stress" >
   <v>     -25.06870341       0.00000000       0.00000000 </v>
   <v>       0.00000000     -25.06870341       0.00000000 </v>
   <v>       0.00000000       0.00000000     -25.06870341 </v>
  </varray>
  <energy>
   <i name="e_fr_energy">    -43.35907953 </i>
   <i name="e_wo_entrp">    -43.35910419 </i>
   <i name="e_0_energy">      0.00009861 </i>
  </energy>
  <time name="totalsc">   13.15   13.43</time>
  <eigenvalues>
   <array>
    <dimension dim="1">band</dimension>
    <dimension dim="2">kpoint</dimension>
    <dimension dim="3">spin</dimension>
    <field>eigene</field>
    <field>occ</field>
    <set>
     <set comment="spin 1">
      <set comment="kpoint 1">
       <r>   -6.2929    1.0000 </r>
       <r>   -2.3316    1.0000 </r>
       <r>   -2.3316    1.0000 </r>
       <r>   -2.3316    1.0000 </r>
       <r>   -2.3316    1.0000 </r>
       <r>   -2.3316    1.0000 </r>
       <r>   -2.3316    1.0000 </r>
       <r>    2.6049    1.0000 </r>
       <r>    2.6049    1.0000 </r>
       <r>    2.6049    1.0000 </r>
       <r>    2.6049    1.0000 </r>
       <r>    2.6049    1.0000 </r>
       <r>    2.6049    1.0000 </r>
       <r>    5.3217    0.8406 </r>
       <r>    5.3217    0.8406 </r>
       <r>    5.3217    0.8406 </r>
       <r>    6.1290    0.0000 </r>
       <r>    6.1290    0.0000 </r>
       <r>    6.1290    0.0000 </r>
       <r>    6.1290    0.0000 </r>
       <r>    6.1290    0.0000 </r>
       <r>    6.1290    0.0000 </r>
       <r>    7.8656    0.0000 </r>
       <r>    7.8657    0.0000 </r>
      </set>
      <set comment="kpoint 2">
       <r>   -6.2412    1.0000 </r>
       <r>   -3.1203    1.0000 </r>
       <r>   -2.3161    1.0000 </r>
       <r>   -2.3161    1.0000 </r>
       <r>   -2.3161    1.0000 </r>
       <r>   -2.3161    1.0000 </r>
       <r>   -1.4811    1.0000 </r>
       <r>    2.4666    1.0000 </r>
       <r>    2.4666    1.0000 </r>
       <r>    2.4666    1.0000 </r>
       <r>    2.4666    1.0000 </r>
       <r>    2.6517    1.0000 </r>
       <r>    2.6517    1.0000 </r>
       <r>    4.9544    1.0000 </r>
       <r>    5.1229    0.9968 </r>
       <r>    5.1229    0.9968 </r>
       <r>    5.9985    0.0000 </r>
       <r>    6.4000    0.0000 </r>
       <r>    6.4003    0.0000 </r>
       <r>    6.4003    0.0000 </r>
       <r>    6.4003    0.0000 </r>
       <r>    6.4003    0.0000 </r>
       <r>    7.7425    0.0000 </r>
       <r>    8.1281    0.0000 </r>
      </set>
      <set comment="kpoint 3">
       <r>   -6.0864    1.0000 </r>
       <r>   -3.8366    1.0000 </r>
       <r>   -2.2757    1.0000 </r>
       <r>   -2.2757    1.0000 </r>
       <r>   -2.2757    1.0000 </r>
       <r>   -2.2757    1.0000 </r>
       <r>   -0.5812    1.0000 </r>
       <r>    2.1653    1.0000 </r>
       <r>    2.1653    1.0000 </r>
       <r>    2.1653    1.0000 </r>
       <r>    2.1653    1.0000 </r>
       <r>    2.7915    1.0000 </r>
       <r>    2.7915    1.0000 </r>
       <r>    4.1618    1.0000 </r>
       <r>    4.6841    1.0000 </r>
       <r>    4.6841    1.0000 </r>
       <r>    5.9994    0.0000 </r>
       <r>    6.8170    0.0000 </r>
       <r>    7.1043    0.0000 </r>
       <r>    7.1043    0.0000 </r>
       <r>    7.1043    0.0000 </r>
       <r>    7.1043    0.0000 </r>
       <r>    7.4325    0.0000 </r>
       <r>    8.7568    0.0000 </r>
      </set>
      <set comment="kpoint 4">
       <r>   -5.8297    1.0000 </r>
       <r>   -4.4718    1.0000 </r>
       <r>   -2.2273    1.0000 </r>
       <r>   -2.2273    1.0000 </r>
       <r>   -2.2273    1.0000 </r>
       <r>   -2.2273    1.0000 </r>
       <r>    0.3545    1.0000 </r>
       <r>    1.8758    1.0000 </r>
       <r>    1.8758    1.0000 </r>
       <r>    1.8758    1.0000 </r>
       <r>    1.8758    1.0000 </r>
       <r>    3.0221    1.0000 </r>
       <r>    3.0221    1.0000 </r>
       <r>    3.2389    1.0000 </r>
       <r>    4.1941    1.0000 </r>
       <r>    4.1941    1.0000 </r>
       <r>    6.1213    0.0000 </r>
       <r>    7.0464    0.0000 </r>
       <r>    7.3800    0.0000 </r>
       <r>    8.0743    0.0000 </r>
       <r>    8.0743    0.0000 </r>
       <r>    8.0743    0.0000 </r>
       <r>    8.0743    0.0000 </r>
       <r>    9.3796    0.0000 </r>
      </set>
      <set comment="kpoint 5">
       <r>   -5.4729    1.0000 </r>
       <r>   -5.0190    1.0000 </r>
       <r>   -2.1941    1.0000 </r>
       <r>   -2.1941    1.0000 </r>
       <r>   -2.1941    1.0000 </r>
       <r>   -2.1941    1.0000 </r>
       <r>    1.3123    1.0000 </r>
       <r>    1.7063    1.0000 </r>
       <r>    1.7063    1.0000 </r>
       <r>    1.7063    1.0000 </r>
       <r>    1.7063    1.0000 </r>
       <r>    2.2789    1.0000 </r>
       <r>    3.3392    1.0000 </r>
       <r>    3.3392    1.0000 </r>
       <r>    3.7349    1.0000 </r>
       <r>    3.7349    1.0000 </r>
       <r>    6.3507    0.0000 </r>
       <r>    6.6689    0.0000 </r>
       <r>    8.0730    0.0000 </r>
       <r>    8.8298    0.0000 </r>
       <r>    9.1890    0.0000 </r>
       <r>    9.1890    0.0000 </r>
       <r>    9.1890    0.0000 </r>
       <r>    9.1890    0.0000 </r>
      </set>
      <set comment="kpoint 6">
       <r>   -6.1897    1.0000 </r>
       <r>   -3.0926    1.0000 </r>
       <r>   -3.0926    1.0000 </r>
       <r>   -2.3885    1.0000 </r>
       <r>   -2.2184    1.0000 </r>
       <r>   -1.4843    1.0000 </r>
       <r>   -1.4843    1.0000 </r>
       <r>    2.0810    1.0000 </r>
       <r>    2.4878    1.0000 </r>
       <r>    2.4878    1.0000 </r>
       <r>    2.5480    1.0000 </r>
       <r>    2.5480    1.0000 </r>
       <r>    2.6872    1.0000 </r>
       <r>    4.4366    1.0000 </r>
       <r>    4.9232    1.0000 </r>
       <r>    5.2724    1.0468 </r>
       <r>    6.2233    0.0000 </r>
       <r>    6.2836    0.0000 </r>
       <r>    6.2836    0.0000 </r>
       <r>    6.6533    0.0000 </r>
       <r>    6.6533    0.0000 </r>
       <r>    7.0129    0.0000 </r>
       <r>    7.9728    0.0000 </r>
       <r>    8.0059    0.0000 </r>
      </set>
      <set comment="kpoint 7">
       <r>   -6.0355    1.0000 </r>
       <r>   -3.8007    1.0000 </r>
       <r>   -3.0134    1.0000 </r>
       <r>   -2.4516    1.0000 </r>
       <r>   -2.0902    1.0000 </r>
       <r>   -1.5012    1.0000 </r>
       <r>   -0.6128    1.0000 </r>
       <r>    1.7066    1.0000 </r>
       <r>    2.1272    1.0000 </r>
       <r>    2.3297    1.0000 </r>
       <r>    2.6092    1.0000 </r>
       <r>    2.6313    1.0000 </r>
       <r>    2.7336    1.0000 </r>
       <r>    3.6997    1.0000 </r>
       <r>    4.4817    1.0000 </r>
       <r>    4.9880    1.0000 </r>
       <r>    6.2942    0.0000 </r>
       <r>    6.5853    0.0000 </r>
       <r>    7.0104    0.0000 </r>
       <r>    7.0493    0.0000 </r>
       <r>    7.3253    0.0000 </r>
       <r>    7.7077    0.0000 </r>
       <r>    7.8991    0.0000 </r>
       <r>    8.3311    0.0000 </r>
      </set>
      <set comment="kpoint 8">
       <r>   -5.7799    1.0000 </r>
       <r>   -4.4302    1.0000 </r>
       <r>   -2.8954    1.0000 </r>
       <r>   -2.5267    1.0000 </r>
       <r>   -1.9382    1.0000 </r>
       <r>   -1.5497    1.0000 </r>
       <r>    0.2798    1.0000 </r>
       <r>    1.4545    1.0000 </r>
       <r>    1.7578    1.0000 </r>
       <r>    2.1493    1.0000 </r>
       <r>    2.4121    1.0000 </r>
       <r>    2.8274    1.0000 </r>
       <r>    2.8964    1.0000 </r>
       <r>    3.0238    1.0000 </r>
       <r>    3.9892    1.0000 </r>
       <r>    4.4569    1.0000 </r>
       <r>    6.4213    0.0000 </r>
       <r>    7.3344    0.0000 </r>
       <r>    7.3719    0.0000 </r>
       <r>    7.5890    0.0000 </r>
       <r>    7.9963    0.0000 </r>
       <r>    8.2691    0.0000 </r>
       <r>    8.9319    0.0000 </r>
       <r>    8.9576    0.0000 </r>
      </set>
      <set comment="kpoint 9">
       <r>   -5.4250    1.0000 </r>
       <r>   -4.9736    1.0000 </r>
       <r>   -2.7592    1.0000 </r>
       <r>   -2.6299    1.0000 </r>
       <r>   -1.7808    1.0000 </r>
       <r>   -1.6441    1.0000 </r>
       <r>    1.1738    1.0000 </r>
       <r>    1.3785    1.0000 </r>
       <r>    1.4886    1.0000 </r>
       <r>    2.0507    1.0000 </r>
       <r>    2.0992    1.0000 </r>
       <r>    2.2003    1.0000 </r>
       <r>    3.1372    1.0000 </r>
       <r>    3.4170    1.0000 </r>
       <r>    3.5298    1.0000 </r>
       <r>    3.9044    1.0000 </r>
       <r>    6.6514    0.0000 </r>
       <r>    6.9656    0.0000 </r>
       <r>    8.2547    0.0000 </r>
       <r>    8.4109    0.0000 </r>
       <r>    8.9442    0.0000 </r>
       <r>    9.1341    0.0000 </r>
       <r>    9.2797    0.0000 </r>
       <r>    9.7962    0.0000 </r>
      </set>
      <set comment="kpoint 10">
       <r>   -5.8834    1.0000 </r>
       <r>   -3.6955    1.0000 </r>
       <r>   -3.6955    1.0000 </r>
       <r>   -2.6380    1.0000 </r>
       <r>   -1.8798    1.0000 </r>
       <r>   -0.7124    1.0000 </r>
       <r>   -0.7124    1.0000 </r>
       <r>    1.3682    1.0000 </r>
       <r>    2.2077    1.0000 </r>
       <r>    2.2077    1.0000 </r>
       <r>    2.6265    1.0000 </r>
       <r>    2.6265    1.0000 </r>
       <r>    2.9284    1.0000 </r>
       <r>    3.0069    1.0000 </r>
       <r>    4.0342    1.0000 </r>
       <r>    5.1019    0.9982 </r>
       <r>    6.4997    0.0000 </r>
       <r>    7.0345    0.0000 </r>
       <r>    7.0345    0.0000 </r>
       <r>    7.6807    0.0000 </r>
       <r>    7.6807    0.0000 </r>
       <r>    8.1435    0.0000 </r>
       <r>    8.2929    0.0000 </r>
       <r>    8.4761    0.0000 </r>
      </set>
      <set comment="kpoint 11">
       <r>   -5.6314    1.0000 </r>
       <r>   -4.3074    1.0000 </r>
       <r>   -3.5295    1.0000 </r>
       <r>   -2.8493    1.0000 </r>
       <r>   -1.6399    1.0000 </r>
       <r>   -0.8845    1.0000 </r>
       <r>    0.0685    1.0000 </r>
       <r>    1.2066    1.0000 </r>
       <r>    1.7834    1.0000 </r>
       <r>    2.2888    1.0000 </r>
       <r>    2.3991    1.0000 </r>
       <r>    2.5804    1.0000 </r>
       <r>    2.9483    1.0000 </r>
       <r>    3.0548    1.0000 </r>
       <r>    3.5374    1.0000 </r>
       <r>    4.7718    1.0000 </r>
       <r>    6.9420    0.0000 </r>
       <r>    7.1659    0.0000 </r>
       <r>    8.0261    0.0000 </r>
       <r>    8.0313    0.0000 </r>
       <r>    8.1715    0.0000 </r>
       <r>    8.4306    0.0000 </r>
       <r>    8.5883    0.0000 </r>
       <r>    9.2594    0.0000 </r>
      </set>
      <set comment="kpoint 12">
       <r>   -5.2819    1.0000 </r>
       <r>   -4.8388    1.0000 </r>
       <r>   -3.3178    1.0000 </r>
       <r>   -3.0826    1.0000 </r>
       <r>   -1.3784    1.0000 </r>
       <r>   -1.1163    1.0000 </r>
       <r>    0.8274    1.0000 </r>
       <r>    1.2364    1.0000 </r>
       <r>    1.4408    1.0000 </r>
       <r>    1.5643    1.0000 </r>
       <r>    2.6463    1.0000 </r>
       <r>    2.6929    1.0000 </r>
       <r>    2.8000    1.0000 </r>
       <r>    3.0783    1.0000 </r>
       <r>    3.5968    1.0000 </r>
       <r>    4.2033    1.0000 </r>
       <r>    7.3907    0.0000 </r>
       <r>    7.6896    0.0000 </r>
       <r>    7.7943    0.0000 </r>
       <r>    8.7663    0.0000 </r>
       <r>    8.8735    0.0000 </r>
       <r>    8.9392    0.0000 </r>
       <r>    9.1665    0.0000 </r>
       <r>    9.7373    0.0000 </r>
      </set>
      <set comment="kpoint 13">
       <r>   -5.3857    1.0000 </r>
       <r>   -4.1089    1.0000 </r>
       <r>   -4.1089    1.0000 </r>
       <r>   -3.1910    1.0000 </r>
       <r>   -1.3180    1.0000 </r>
       <r>   -0.2417    1.0000 </r>
       <r>   -0.2417    1.0000 </r>
       <r>    1.1496    1.0000 </r>
       <r>    1.6464    1.0000 </r>
       <r>    1.9387    1.0000 </r>
       <r>    1.9387    1.0000 </r>
       <r>    3.0389    1.0000 </r>
       <r>    3.1471    1.0000 </r>
       <r>    3.1471    1.0000 </r>
       <r>    3.3095    1.0000 </r>
       <r>    4.7755    1.0000 </r>
       <r>    6.9344    0.0000 </r>
       <r>    8.1528    0.0000 </r>
       <r>    8.1528    0.0000 </r>
       <r>    8.2022    0.0000 </r>
       <r>    8.8246    0.0000 </r>
       <r>    9.0365    0.0000 </r>
       <r>    9.0365    0.0000 </r>
       <r>    9.0810    0.0000 </r>
      </set>
      <set comment="kpoint 14">
       <r>   -5.0463    1.0000 </r>
       <r>   -4.6181    1.0000 </r>
       <r>   -3.8448    1.0000 </r>
       <r>   -3.5314    1.0000 </r>
       <r>   -0.9685    1.0000 </r>
       <r>   -0.6013    1.0000 </r>
       <r>    0.3849    1.0000 </r>
       <r>    1.0105    1.0000 </r>
       <r>    1.2715    1.0000 </r>
       <r>    1.5460    1.0000 </r>
       <r>    2.2103    1.0000 </r>
       <r>    2.5838    1.0000 </r>
       <r>    3.2852    1.0000 </r>
       <r>    3.3888    1.0000 </r>
       <r>    3.7891    1.0000 </r>
       <r>    4.3930    1.0000 </r>
       <r>    7.4338    0.0000 </r>
       <r>    8.3197    0.0000 </r>
       <r>    8.3618    0.0000 </r>
       <r>    8.3620    0.0000 </r>
       <r>    8.6299    0.0000 </r>
       <r>    8.8060    0.0000 </r>
       <r>    9.2811    0.0000 </r>
       <r>    9.6170    0.0000 </r>
      </set>
      <set comment="kpoint 15">
       <r>   -4.7227    1.0000 </r>
       <r>   -4.3185    1.0000 </r>
       <r>   -4.3185    1.0000 </r>
       <r>   -3.9508    1.0000 </r>
       <r>   -0.5372    1.0000 </r>
       <r>   -0.0818    1.0000 </r>
       <r>   -0.0818    1.0000 </r>
       <r>    0.4552    1.0000 </r>
       <r>    1.4627    1.0000 </r>
       <r>    1.7853    1.0000 </r>
       <r>    1.7853    1.0000 </r>
       <r>    2.1392    1.0000 </r>
       <r>    3.7924    1.0000 </r>
       <r>    3.8990    1.0000 </r>
       <r>    3.8990    1.0000 </r>
       <r>    4.3116    1.0000 </r>
       <r>    7.4689    0.0000 </r>
       <r>    7.9662    0.0000 </r>
       <r>    7.9724    0.0000 </r>
       <r>    7.9724    0.0000 </r>
       <r>    9.4603    0.0000 </r>
       <r>    9.4603    0.0000 </r>
       <r>    9.5637    0.0000 </r>
       <r>    9.8695    0.0000 </r>
      </set>
      <set comment="kpoint 16">
       <r>   -6.1384    1.0000 </r>
       <r>   -3.0706    1.0000 </r>
       <r>   -3.0706    1.0000 </r>
       <r>   -3.0706    1.0000 </r>
       <r>   -1.4888    1.0000 </r>
       <r>   -1.4888    1.0000 </r>
       <r>   -1.4888    1.0000 </r>
       <r>    2.1458    1.0000 </r>
       <r>    2.1458    1.0000 </r>
       <r>    2.1458    1.0000 </r>
       <r>    2.7332    1.0000 </r>
       <r>    2.7332    1.0000 </r>
       <r>    2.7332    1.0000 </r>
       <r>    3.9844    1.0000 </r>
       <r>    5.0966    0.9985 </r>
       <r>    5.0966    0.9985 </r>
       <r>    6.2570    0.0000 </r>
       <r>    6.2570    0.0000 </r>
       <r>    6.2570    0.0000 </r>
       <r>    7.1141    0.0000 </r>
       <r>    7.1141    0.0000 </r>
       <r>    7.1141    0.0000 </r>
       <r>    7.7166    0.0000 </r>
       <r>    8.1976    0.0000 </r>
      </set>
      <set comment="kpoint 17">
       <r>   -5.9850    1.0000 </r>
       <r>   -3.7673    1.0000 </r>
       <r>   -3.0114    1.0000 </r>
       <r>   -3.0114    1.0000 </r>
       <r>   -1.5055    1.0000 </r>
       <r>   -1.5055    1.0000 </r>
       <r>   -0.6537    1.0000 </r>
       <r>    1.7875    1.0000 </r>
       <r>    1.7875    1.0000 </r>
       <r>    2.3413    1.0000 </r>
       <r>    2.6867    1.0000 </r>
       <r>    2.6867    1.0000 </r>
       <r>    2.8704    1.0000 </r>
       <r>    3.2850    1.0000 </r>
       <r>    4.6943    1.0000 </r>
       <r>    4.8965    1.0000 </r>
       <r>    6.3639    0.0000 </r>
       <r>    6.6352    0.0000 </r>
       <r>    6.6352    0.0000 </r>
       <r>    7.4086    0.0000 </r>
       <r>    7.7505    0.0000 </r>
       <r>    7.9769    0.0000 </r>
       <r>    7.9769    0.0000 </r>
       <r>    8.1518    0.0000 </r>
      </set>
      <set comment="kpoint 18">
       <r>   -5.7306    1.0000 </r>
       <r>   -4.3902    1.0000 </r>
       <r>   -2.9370    1.0000 </r>
       <r>   -2.9370    1.0000 </r>
       <r>   -1.5356    1.0000 </r>
       <r>   -1.5356    1.0000 </r>
       <r>    0.1860    1.0000 </r>
       <r>    1.5376    1.0000 </r>
       <r>    1.5376    1.0000 </r>
       <r>    2.4995    1.0000 </r>
       <r>    2.4995    1.0000 </r>
       <r>    2.5493    1.0000 </r>
       <r>    2.6701    1.0000 </r>
       <r>    3.0963    1.0000 </r>
       <r>    4.2314    1.0000 </r>
       <r>    4.3389    1.0000 </r>
       <r>    6.5520    0.0000 </r>
       <r>    7.4214    0.0000 </r>
       <r>    7.4214    0.0000 </r>
       <r>    7.5091    0.0000 </r>
       <r>    7.8780    0.0000 </r>
       <r>    8.6653    0.0000 </r>
       <r>    9.0245    0.0000 </r>
       <r>    9.0245    0.0000 </r>
      </set>
      <set comment="kpoint 19">
       <r>   -5.3776    1.0000 </r>
       <r>   -4.9292    1.0000 </r>
       <r>   -2.8831    1.0000 </r>
       <r>   -2.8831    1.0000 </r>
       <r>   -1.5632    1.0000 </r>
       <r>   -1.5632    1.0000 </r>
       <r>    1.0060    1.0000 </r>
       <r>    1.4205    1.0000 </r>
       <r>    1.4205    1.0000 </r>
       <r>    1.7927    1.0000 </r>
       <r>    2.3524    1.0000 </r>
       <r>    2.3524    1.0000 </r>
       <r>    3.1309    1.0000 </r>
       <r>    3.4059    1.0000 </r>
       <r>    3.7056    1.0000 </r>
       <r>    3.7900    1.0000 </r>
       <r>    6.8194    0.0000 </r>
       <r>    7.1508    0.0000 </r>
       <r>    8.4566    0.0000 </r>
       <r>    8.4566    0.0000 </r>
       <r>    8.4886    0.0000 </r>
       <r>    9.0543    0.0000 </r>
       <r>    9.6267    0.0000 </r>
       <r>    9.6267    0.0000 </r>
      </set>
      <set comment="kpoint 20">
       <r>   -5.8336    1.0000 </r>
       <r>   -3.6710    1.0000 </r>
       <r>   -3.6710    1.0000 </r>
       <r>   -3.0190    1.0000 </r>
       <r>   -1.5072    1.0000 </r>
       <r>   -0.7760    1.0000 </r>
       <r>   -0.7760    1.0000 </r>
       <r>    1.4916    1.0000 </r>
       <r>    2.0266    1.0000 </r>
       <r>    2.0266    1.0000 </r>
       <r>    2.6181    1.0000 </r>
       <r>    2.8558    1.0000 </r>
       <r>    2.8558    1.0000 </r>
       <r>    2.9716    1.0000 </r>
       <r>    4.3649    1.0000 </r>
       <r>    4.9850    1.0000 </r>
       <r>    6.5594    0.0000 </r>
       <r>    6.7809    0.0000 </r>
       <r>    6.7809    0.0000 </r>
       <r>    7.6735    0.0000 </r>
       <r>    8.2113    0.0000 </r>
       <r>    8.2113    0.0000 </r>
       <r>    8.4101    0.0000 </r>
       <r>    8.7264    0.0000 </r>
      </set>
      <set comment="kpoint 21">
       <r>   -5.5832    1.0000 </r>
       <r>   -4.2721    1.0000 </r>
       <r>   -3.5241    1.0000 </r>
       <r>   -3.0692    1.0000 </r>
       <r>   -1.4716    1.0000 </r>
       <r>   -0.9649    1.0000 </r>
       <r>   -0.0663    1.0000 </r>
       <r>    1.3655    1.0000 </r>
       <r>    1.7663    1.0000 </r>
       <r>    1.9384    1.0000 </r>
       <r>    2.4043    1.0000 </r>
       <r>    2.7687    1.0000 </r>
       <r>    2.9982    1.0000 </r>
       <r>    3.1484    1.0000 </r>
       <r>    3.8761    1.0000 </r>
       <r>    4.6741    1.0000 </r>
       <r>    6.9987    0.0000 </r>
       <r>    7.0121    0.0000 </r>
       <r>    7.5658    0.0000 </r>
       <r>    7.8186    0.0000 </r>
       <r>    8.4256    0.0000 </r>
       <r>    8.6017    0.0000 </r>
       <r>    9.2261    0.0000 </r>
       <r>    9.2550    0.0000 </r>
      </set>
      <set comment="kpoint 22">
       <r>   -5.2363    1.0000 </r>
       <r>   -4.7971    1.0000 </r>
       <r>   -3.3499    1.0000 </r>
       <r>   -3.1849    1.0000 </r>
       <r>   -1.3617    1.0000 </r>
       <r>   -1.1788    1.0000 </r>
       <r>    0.6119    1.0000 </r>
       <r>    1.2729    1.0000 </r>
       <r>    1.4013    1.0000 </r>
       <r>    1.5523    1.0000 </r>
       <r>    2.7657    1.0000 </r>
       <r>    2.8711    1.0000 </r>
       <r>    2.8737    1.0000 </r>
       <r>    3.3701    1.0000 </r>
       <r>    3.5778    1.0000 </r>
       <r>    4.1240    1.0000 </r>
       <r>    7.3089    0.0000 </r>
       <r>    7.6317    0.0000 </r>
       <r>    7.8431    0.0000 </r>
       <r>    8.5908    0.0000 </r>
       <r>    8.9097    0.0000 </r>
       <r>    8.9283    0.0000 </r>
       <r>    9.1026    0.0000 </r>
       <r>    9.7659    0.0000 </r>
      </set>
      <set comment="kpoint 23">
       <r>   -5.3397    1.0000 </r>
       <r>   -4.0835    1.0000 </r>
       <r>   -4.0835    1.0000 </r>
       <r>   -3.2890    1.0000 </r>
       <r>   -1.3227    1.0000 </r>
       <r>   -0.4072    1.0000 </r>
       <r>   -0.4072    1.0000 </r>
       <r>    1.3108    1.0000 </r>
       <r>    1.3664    1.0000 </r>
       <r>    2.0931    1.0000 </r>
       <r>    2.0931    1.0000 </r>
       <r>    3.2182    1.0000 </r>
       <r>    3.2182    1.0000 </r>
       <r>    3.3464    1.0000 </r>
       <r>    3.3973    1.0000 </r>
       <r>    4.7249    1.0000 </r>
       <r>    6.9893    0.0000 </r>
       <r>    7.7904    0.0000 </r>
       <r>    7.7904    0.0000 </r>
       <r>    7.8806    0.0000 </r>
       <r>    8.7869    0.0000 </r>
       <r>    9.0540    0.0000 </r>
       <r>    9.4282    0.0000 </r>
       <r>    9.4289    0.0000 </r>
      </set>
      <set comment="kpoint 24">
       <r>   -5.0040    1.0000 </r>
       <r>   -4.5821    1.0000 </r>
       <r>   -3.8384    1.0000 </r>
       <r>   -3.5611    1.0000 </r>
       <r>   -1.0804    1.0000 </r>
       <r>   -0.7634    1.0000 </r>
       <r>    0.1439    1.0000 </r>
       <r>    0.7115    1.0000 </r>
       <r>    1.5181    1.0000 </r>
       <r>    1.7777    1.0000 </r>
       <r>    2.4821    1.0000 </r>
       <r>    2.9210    1.0000 </r>
       <r>    3.3361    1.0000 </r>
       <r>    3.4279    1.0000 </r>
       <r>    3.7930    1.0000 </r>
       <r>    4.3646    1.0000 </r>
       <r>    7.4775    0.0000 </r>
       <r>    8.0482    0.0000 </r>
       <r>    8.0757    0.0000 </r>
       <r>    8.3415    0.0000 </r>
       <r>    8.6439    0.0000 </r>
       <r>    8.8042    0.0000 </r>
       <r>    8.8401    0.0000 </r>
       <r>    9.6998    0.0000 </r>
      </set>
      <set comment="kpoint 25">
       <r>   -4.6864    1.0000 </r>
       <r>   -4.2928    1.0000 </r>
       <r>   -4.2928    1.0000 </r>
       <r>   -3.9441    1.0000 </r>
       <r>   -0.7295    1.0000 </r>
       <r>   -0.3159    1.0000 </r>
       <r>   -0.3159    1.0000 </r>
       <r>    0.1755    1.0000 </r>
       <r>    1.7575    1.0000 </r>
       <r>    2.0912    1.0000 </r>
       <r>    2.0912    1.0000 </r>
       <r>    2.4799    1.0000 </r>
       <r>    3.8163    1.0000 </r>
       <r>    3.9155    1.0000 </r>
       <r>    3.9155    1.0000 </r>
       <r>    4.3090    1.0000 </r>
       <r>    7.4964    0.0000 </r>
       <r>    7.8935    0.0000 </r>
       <r>    7.9613    0.0000 </r>
       <r>    7.9613    0.0000 </r>
       <r>    9.0794    0.0000 </r>
       <r>    9.0794    0.0000 </r>
       <r>    9.3664    0.0000 </r>
       <r>    9.4109    0.0000 </r>
      </set>
      <set comment="kpoint 26">
       <r>   -5.6850    1.0000 </r>
       <r>   -3.6052    1.0000 </r>
       <r>   -3.6052    1.0000 </r>
       <r>   -3.6052    1.0000 </r>
       <r>   -0.9420    1.0000 </r>
       <r>   -0.9420    1.0000 </r>
       <r>   -0.9420    1.0000 </r>
       <r>    1.8533    1.0000 </r>
       <r>    1.8533    1.0000 </r>
       <r>    1.8533    1.0000 </r>
       <r>    1.9725    1.0000 </r>
       <r>    3.0999    1.0000 </r>
       <r>    3.0999    1.0000 </r>
       <r>    3.0999    1.0000 </r>
       <r>    4.6898    1.0000 </r>
       <r>    4.6898    1.0000 </r>
       <r>    6.7339    0.0000 </r>
       <r>    6.7339    0.0000 </r>
       <r>    6.7339    0.0000 </r>
       <r>    7.2811    0.0000 </r>
       <r>    8.7160    0.0000 </r>
       <r>    8.7160    0.0000 </r>
       <r>    9.1394    0.0000 </r>
       <r>    9.1394    0.0000 </r>
      </set>
      <set comment="kpoint 27">
       <r>   -5.4395    1.0000 </r>
       <r>   -4.1703    1.0000 </r>
       <r>   -3.5217    1.0000 </r>
       <r>   -3.5217    1.0000 </r>
       <r>   -1.1391    1.0000 </r>
       <r>   -1.1391    1.0000 </r>
       <r>   -0.3885    1.0000 </r>
       <r>    1.3278    1.0000 </r>
       <r>    1.7981    1.0000 </r>
       <r>    1.7981    1.0000 </r>
       <r>    2.4171    1.0000 </r>
       <r>    3.1501    1.0000 </r>
       <r>    3.1501    1.0000 </r>
       <r>    3.3094    1.0000 </r>
       <r>    4.3158    1.0000 </r>
       <r>    4.4730    1.0000 </r>
       <r>    7.0057    0.0000 </r>
       <r>    7.1629    0.0000 </r>
       <r>    7.1629    0.0000 </r>
       <r>    7.4092    0.0000 </r>
       <r>    8.5476    0.0000 </r>
       <r>    9.1380    0.0000 </r>
       <r>    9.4724    0.0000 </r>
       <r>   10.1150    0.0000 </r>
      </set>
      <set comment="kpoint 28">
       <r>   -5.1007    1.0000 </r>
       <r>   -4.6744    1.0000 </r>
       <r>   -3.4609    1.0000 </r>
       <r>   -3.4609    1.0000 </r>
       <r>   -1.2728    1.0000 </r>
       <r>   -1.2728    1.0000 </r>
       <r>    0.1571    1.0000 </r>
       <r>    0.7228    1.0000 </r>
       <r>    1.8051    1.0000 </r>
       <r>    1.8051    1.0000 </r>
       <r>    3.1027    1.0000 </r>
       <r>    3.1027    1.0000 </r>
       <r>    3.1136    1.0000 </r>
       <r>    3.5926    1.0000 </r>
       <r>    3.8485    1.0000 </r>
       <r>    3.9359    1.0000 </r>
       <r>    7.3313    0.0000 </r>
       <r>    7.5755    0.0000 </r>
       <r>    7.9801    0.0000 </r>
       <r>    7.9801    0.0000 </r>
       <r>    8.7051    0.0000 </r>
       <r>    9.0387    0.0000 </r>
       <r>    9.0387    0.0000 </r>
       <r>    9.4284    0.0000 </r>
      </set>
      <set comment="kpoint 29">
       <r>   -5.2032    1.0000 </r>
       <r>   -4.0150    1.0000 </r>
       <r>   -4.0150    1.0000 </r>
       <r>   -3.5584    1.0000 </r>
       <r>   -1.2710    1.0000 </r>
       <r>   -0.7580    1.0000 </r>
       <r>   -0.7580    1.0000 </r>
       <r>    0.7186    1.0000 </r>
       <r>    1.9202    1.0000 </r>
       <r>    2.3944    1.0000 </r>
       <r>    2.3944    1.0000 </r>
       <r>    3.4122    1.0000 </r>
       <r>    3.4122    1.0000 </r>
       <r>    3.4550    1.0000 </r>
       <r>    4.0049    1.0000 </r>
       <r>    4.5799    1.0000 </r>
       <r>    7.1439    0.0000 </r>
       <r>    7.2803    0.0000 </r>
       <r>    7.4094    0.0000 </r>
       <r>    7.4094    0.0000 </r>
       <r>    8.7492    0.0000 </r>
       <r>    8.9749    0.0000 </r>
       <r>    9.4572    0.0000 </r>
       <r>    9.4572    0.0000 </r>
      </set>
      <set comment="kpoint 30">
       <r>   -4.8796    1.0000 </r>
       <r>   -4.4781    1.0000 </r>
       <r>   -3.8329    1.0000 </r>
       <r>   -3.6658    1.0000 </r>
       <r>   -1.2562    1.0000 </r>
       <r>   -1.0713    1.0000 </r>
       <r>   -0.3285    1.0000 </r>
       <r>    0.1625    1.0000 </r>
       <r>    2.1013    1.0000 </r>
       <r>    2.2826    1.0000 </r>
       <r>    3.0166    1.0000 </r>
       <r>    3.4908    1.0000 </r>
       <r>    3.5447    1.0000 </r>
       <r>    3.5554    1.0000 </r>
       <r>    3.8005    1.0000 </r>
       <r>    4.2732    1.0000 </r>
       <r>    7.5509    0.0000 </r>
       <r>    7.5888    0.0000 </r>
       <r>    7.6440    0.0000 </r>
       <r>    8.1013    0.0000 </r>
       <r>    8.5222    0.0000 </r>
       <r>    8.6182    0.0000 </r>
       <r>    8.8176    0.0000 </r>
       <r>    9.2096    0.0000 </r>
      </set>
      <set comment="kpoint 31">
       <r>   -4.5819    1.0000 </r>
       <r>   -4.2234    1.0000 </r>
       <r>   -4.2234    1.0000 </r>
       <r>   -3.9377    1.0000 </r>
       <r>   -1.0777    1.0000 </r>
       <r>   -0.7560    1.0000 </r>
       <r>   -0.7560    1.0000 </r>
       <r>   -0.3393    1.0000 </r>
       <r>    2.4168    1.0000 </r>
       <r>    2.7375    1.0000 </r>
       <r>    2.7375    1.0000 </r>
       <r>    3.1617    1.0000 </r>
       <r>    3.8838    1.0000 </r>
       <r>    3.9593    1.0000 </r>
       <r>    3.9593    1.0000 </r>
       <r>    4.2960    1.0000 </r>
       <r>    7.5381    0.0000 </r>
       <r>    7.5711    0.0000 </r>
       <r>    7.8101    0.0000 </r>
       <r>    7.8101    0.0000 </r>
       <r>    8.6428    0.0000 </r>
       <r>    8.6428    0.0000 </r>
       <r>    8.9452    0.0000 </r>
       <r>    9.0221    0.0000 </r>
      </set>
      <set comment="kpoint 32">
       <r>   -4.9806    1.0000 </r>
       <r>   -3.9282    1.0000 </r>
       <r>   -3.9282    1.0000 </r>
       <r>   -3.9282    1.0000 </r>
       <r>   -1.0951    1.0000 </r>
       <r>   -1.0951    1.0000 </r>
       <r>   -1.0951    1.0000 </r>
       <r>    0.1362    1.0000 </r>
       <r>    2.6510    1.0000 </r>
       <r>    2.6510    1.0000 </r>
       <r>    2.6510    1.0000 </r>
       <r>    3.6281    1.0000 </r>
       <r>    3.6281    1.0000 </r>
       <r>    3.6281    1.0000 </r>
       <r>    4.3625    1.0000 </r>
       <r>    4.3625    1.0000 </r>
       <r>    6.9089    0.0000 </r>
       <r>    7.3510    0.0000 </r>
       <r>    7.3510    0.0000 </r>
       <r>    7.3510    0.0000 </r>
       <r>    8.8170    0.0000 </r>
       <r>    8.8170    0.0000 </r>
       <r>    9.3051    0.0000 </r>
       <r>    9.3051    0.0000 </r>
      </set>
      <set comment="kpoint 33">
       <r>   -4.6807    1.0000 </r>
       <r>   -4.3199    1.0000 </r>
       <r>   -3.8649    1.0000 </r>
       <r>   -3.8649    1.0000 </r>
       <r>   -1.2973    1.0000 </r>
       <r>   -1.2973    1.0000 </r>
       <r>   -0.7913    1.0000 </r>
       <r>   -0.3751    1.0000 </r>
       <r>    2.7980    1.0000 </r>
       <r>    2.7980    1.0000 </r>
       <r>    3.4302    1.0000 </r>
       <r>    3.7400    1.0000 </r>
       <r>    3.7400    1.0000 </r>
       <r>    3.8527    1.0000 </r>
       <r>    4.1039    1.0000 </r>
       <r>    4.1077    1.0000 </r>
       <r>    7.1015    0.0000 </r>
       <r>    7.4256    0.0000 </r>
       <r>    7.6487    0.0000 </r>
       <r>    7.6487    0.0000 </r>
       <r>    8.6195    0.0000 </r>
       <r>    8.6495    0.0000 </r>
       <r>    8.6495    0.0000 </r>
       <r>    8.6752    0.0000 </r>
      </set>
      <set comment="kpoint 34">
       <r>   -4.4230    1.0000 </r>
       <r>   -4.1354    1.0000 </r>
       <r>   -4.1354    1.0000 </r>
       <r>   -3.9685    1.0000 </r>
       <r>   -1.3284    1.0000 </r>
       <r>   -1.1457    1.0000 </r>
       <r>   -1.1457    1.0000 </r>
       <r>   -0.8251    1.0000 </r>
       <r>    3.1861    1.0000 </r>
       <r>    3.4246    1.0000 </r>
       <r>    3.4246    1.0000 </r>
       <r>    3.8442    1.0000 </r>
       <r>    3.9826    1.0000 </r>
       <r>    4.0170    1.0000 </r>
       <r>    4.0170    1.0000 </r>
       <r>    4.2599    1.0000 </r>
       <r>    7.0286    0.0000 </r>
       <r>    7.3711    0.0000 </r>
       <r>    7.3711    0.0000 </r>
       <r>    7.4074    0.0000 </r>
       <r>    8.5631    0.0000 </r>
       <r>    8.5631    0.0000 </r>
       <r>    8.7222    0.0000 </r>
       <r>    8.7747    0.0000 </r>
      </set>
      <set comment="kpoint 35">
       <r>   -4.2378    1.0000 </r>
       <r>   -4.0712    1.0000 </r>
       <r>   -4.0712    1.0000 </r>
       <r>   -4.0712    1.0000 </r>
       <r>   -1.3711    1.0000 </r>
       <r>   -1.3711    1.0000 </r>
       <r>   -1.3711    1.0000 </r>
       <r>   -1.1893    1.0000 </r>
       <r>    3.8831    1.0000 </r>
       <r>    3.8831    1.0000 </r>
       <r>    3.8831    1.0000 </r>
       <r>    4.0928    1.0000 </r>
       <r>    4.0928    1.0000 </r>
       <r>    4.0928    1.0000 </r>
       <r>    4.1911    1.0000 </r>
       <r>    4.1911    1.0000 </r>
       <r>    6.7087    0.0000 </r>
       <r>    6.9669    0.0000 </r>
       <r>    6.9669    0.0000 </r>
       <r>    6.9669    0.0000 </r>
       <r>    8.6221    0.0000 </r>
       <r>    8.6221    0.0000 </r>
       <r>    8.6227    0.0000 </r>
       <r>    8.7035    0.0000 </r>
      </set>
     </set>
    </set>
   </array>
  </eigenvalues>
  <separator name="orbital magnetization" >
   <v name="MAGDIPOLOUT">      0.00000000      0.00000000      0.00000000</v>
  </separator>
  <dos>
   <i name="efermi">      5.35709877 </i>
   <total>
    <array>
     <dimension dim="1">gridpoints</dimension>
     <dimension dim="2">spin</dimension>
     <field>energy</field>
     <field>total</field>
     <field>integrated</field>
     <set>
      <set comment="spin 1">
       <r>    -7.2929     0.0000     0.0000 </r>
       <r>    -7.2315     0.0000     0.0000 </r>
       <r>    -7.1702     0.0000     0.0000 </r>
       <r>    -7.1088     0.0000     0.0000 </r>
       <r>    -7.0474     0.0000     0.0000 </r>
       <r>    -6.9861     0.0000     0.0000 </r>
       <r>    -6.9247     0.0000     0.0000 </r>
       <r>    -6.8634     0.0000     0.0000 </r>
       <r>    -6.8020     0.0000     0.0000 </r>
       <r>    -6.7406     0.0000     0.0000 </r>
       <r>    -6.6793     0.0000     0.0000 </r>
       <r>    -6.6179     0.0000     0.0000 </r>
       <r>    -6.5566     0.0001     0.0000 </r>
       <r>    -6.4952     0.0007     0.0001 </r>
       <r>    -6.4338     0.0010     0.0001 </r>
       <r>    -6.3725    -0.0078    -0.0004 </r>
       <r>    -6.3111    -0.0029    -0.0005 </r>
       <r>    -6.2498     0.1548     0.0090 </r>
       <r>    -6.1884     0.4365     0.0357 </r>
       <r>    -6.1270     0.4599     0.0640 </r>
       <r>    -6.0657     0.5624     0.0985 </r>
       <r>    -6.0043     1.0628     0.1637 </r>
       <r>    -5.9430     0.8396     0.2152 </r>
       <r>    -5.8816     0.4846     0.2449 </r>
       <r>    -5.8202     1.0915     0.3119 </r>
       <r>    -5.7589     1.4327     0.3998 </r>
       <r>    -5.6975     1.0485     0.4642 </r>
       <r>    -5.6362     1.0709     0.5299 </r>
       <r>    -5.5748     1.6512     0.6312 </r>
       <r>    -5.5134     0.9287     0.6882 </r>
       <r>    -5.4521     0.8183     0.7384 </r>
       <r>    -5.3907     1.9748     0.8595 </r>
       <r>    -5.3294     1.8460     0.9728 </r>
       <r>    -5.2680     1.6676     1.0751 </r>
       <r>    -5.2066     2.0830     1.2030 </r>
       <r>    -5.1453     1.1115     1.2711 </r>
       <r>    -5.0839     0.6737     1.3125 </r>
       <r>    -5.0226     1.9364     1.4313 </r>
       <r>    -4.9612     2.6734     1.5953 </r>
       <r>    -4.8998     2.1698     1.7285 </r>
       <r>    -4.8385     2.2400     1.8659 </r>
       <r>    -4.7771     1.9611     1.9863 </r>
       <r>    -4.7158     1.5015     2.0784 </r>
       <r>    -4.6544     2.2772     2.2181 </r>
       <r>    -4.5930     2.7531     2.3871 </r>
       <r>    -4.5317     2.0749     2.5144 </r>
       <r>    -4.4703     1.8085     2.6253 </r>
       <r>    -4.4090     2.2541     2.7636 </r>
       <r>    -4.3476     2.2439     2.9013 </r>
       <r>    -4.2862     4.0114     3.1475 </r>
       <r>    -4.2249     4.0715     3.3973 </r>
       <r>    -4.1635     2.5174     3.5518 </r>
       <r>    -4.1022     3.1253     3.7435 </r>
       <r>    -4.0408     3.2724     3.9443 </r>
       <r>    -3.9795     2.6712     4.1082 </r>
       <r>    -3.9181     3.0428     4.2949 </r>
       <r>    -3.8567     4.3816     4.5638 </r>
       <r>    -3.7954     4.7534     4.8555 </r>
       <r>    -3.7340     2.2766     4.9952 </r>
       <r>    -3.6727     2.3376     5.1386 </r>
       <r>    -3.6113     3.0109     5.3233 </r>
       <r>    -3.5499     4.4650     5.5973 </r>
       <r>    -3.4886     5.6136     5.9418 </r>
       <r>    -3.4272     2.4385     6.0914 </r>
       <r>    -3.3659     1.0125     6.1535 </r>
       <r>    -3.3045     2.0124     6.2770 </r>
       <r>    -3.2431     1.4825     6.3680 </r>
       <r>    -3.1818     1.1966     6.4414 </r>
       <r>    -3.1204     1.9194     6.5592 </r>
       <r>    -3.0591     3.7773     6.7909 </r>
       <r>    -2.9977     4.2426     7.0513 </r>
       <r>    -2.9363     2.8930     7.2288 </r>
       <r>    -2.8750     2.9190     7.4079 </r>
       <r>    -2.8136     2.0161     7.5316 </r>
       <r>    -2.7523     0.6633     7.5723 </r>
       <r>    -2.6909     0.4347     7.5990 </r>
       <r>    -2.6295     0.7902     7.6474 </r>
       <r>    -2.5682     0.8657     7.7006 </r>
       <r>    -2.5068     0.7478     7.7465 </r>
       <r>    -2.4455     0.8673     7.7997 </r>
       <r>    -2.3841     0.7137     7.8435 </r>
       <r>    -2.3227     0.8968     7.8985 </r>
       <r>    -2.2614     1.6153     7.9976 </r>
       <r>    -2.2000     1.8779     8.1128 </r>
       <r>    -2.1387     1.1176     8.1814 </r>
       <r>    -2.0773     0.5793     8.2170 </r>
       <r>    -2.0159     0.3260     8.2370 </r>
       <r>    -1.9546     0.3865     8.2607 </r>
       <r>    -1.8932     0.7608     8.3074 </r>
       <r>    -1.8319     0.5744     8.3426 </r>
       <r>    -1.7705     0.5598     8.3770 </r>
       <r>    -1.7091     0.4300     8.4033 </r>
       <r>    -1.6478     0.6434     8.4428 </r>
       <r>    -1.5864     1.9001     8.5594 </r>
       <r>    -1.5251     5.3164     8.8856 </r>
       <r>    -1.4637     6.4126     9.2791 </r>
       <r>    -1.4023     2.9616     9.4608 </r>
       <r>    -1.3410     3.4679     9.6736 </r>
       <r>    -1.2796     5.7336    10.0254 </r>
       <r>    -1.2183     4.2707    10.2875 </r>
       <r>    -1.1569     3.6919    10.5140 </r>
       <r>    -1.0955     5.8196    10.8711 </r>
       <r>    -1.0342     4.4914    11.1467 </r>
       <r>    -0.9728     2.3312    11.2897 </r>
       <r>    -0.9115     2.1194    11.4198 </r>
       <r>    -0.8501     1.1875    11.4926 </r>
       <r>    -0.7887     3.7910    11.7252 </r>
       <r>    -0.7274     6.6119    12.1310 </r>
       <r>    -0.6660     3.4406    12.3421 </r>
       <r>    -0.6047     1.5509    12.4372 </r>
       <r>    -0.5433     1.3124    12.5178 </r>
       <r>    -0.4819     0.2108    12.5307 </r>
       <r>    -0.4206     0.9787    12.5907 </r>
       <r>    -0.3592     3.6426    12.8143 </r>
       <r>    -0.2979     4.2071    13.0724 </r>
       <r>    -0.2365     1.8570    13.1863 </r>
       <r>    -0.1751     0.1069    13.1929 </r>
       <r>    -0.1138     0.4773    13.2222 </r>
       <r>    -0.0524     1.8362    13.3349 </r>
       <r>     0.0089     1.0511    13.3994 </r>
       <r>     0.0703     0.2462    13.4145 </r>
       <r>     0.1316     2.5431    13.5705 </r>
       <r>     0.1930     4.5422    13.8492 </r>
       <r>     0.2544     2.1173    13.9791 </r>
       <r>     0.3157     0.4290    14.0054 </r>
       <r>     0.3771     0.7428    14.0510 </r>
       <r>     0.4384     0.8351    14.1023 </r>
       <r>     0.4998     0.3075    14.1211 </r>
       <r>     0.5612     0.1951    14.1331 </r>
       <r>     0.6225     0.9848    14.1935 </r>
       <r>     0.6839     1.8863    14.3093 </r>
       <r>     0.7452     2.5508    14.4658 </r>
       <r>     0.8066     1.4254    14.5533 </r>
       <r>     0.8680     0.4205    14.5791 </r>
       <r>     0.9293     0.0870    14.5844 </r>
       <r>     0.9907     0.7379    14.6297 </r>
       <r>     1.0520     1.1806    14.7021 </r>
       <r>     1.1134     0.3834    14.7256 </r>
       <r>     1.1748     0.8853    14.7800 </r>
       <r>     1.2361     2.3003    14.9211 </r>
       <r>     1.2975     3.3791    15.1284 </r>
       <r>     1.3588     4.5823    15.4096 </r>
       <r>     1.4202     5.5963    15.7530 </r>
       <r>     1.4816     5.2514    16.0752 </r>
       <r>     1.5429     5.8409    16.4336 </r>
       <r>     1.6043     3.8916    16.6724 </r>
       <r>     1.6656     0.3806    16.6958 </r>
       <r>     1.7270     2.4911    16.8486 </r>
       <r>     1.7884     8.7542    17.3858 </r>
       <r>     1.8497     7.7826    17.8633 </r>
       <r>     1.9111     2.9775    18.0460 </r>
       <r>     1.9724     2.3020    18.1873 </r>
       <r>     2.0338     2.6313    18.3487 </r>
       <r>     2.0952     5.7859    18.7037 </r>
       <r>     2.1565     6.9138    19.1280 </r>
       <r>     2.2179     3.9520    19.3705 </r>
       <r>     2.2792     2.5104    19.5245 </r>
       <r>     2.3406     3.8182    19.7588 </r>
       <r>     2.4020     6.1535    20.1364 </r>
       <r>     2.4633     6.7317    20.5494 </r>
       <r>     2.5247     5.2307    20.8704 </r>
       <r>     2.5860     4.3076    21.1347 </r>
       <r>     2.6474     5.6942    21.4841 </r>
       <r>     2.7088     6.6021    21.8892 </r>
       <r>     2.7701     6.8712    22.3108 </r>
       <r>     2.8315     6.8885    22.7335 </r>
       <r>     2.8928     6.6722    23.1429 </r>
       <r>     2.9542     5.2964    23.4679 </r>
       <r>     3.0156     4.7530    23.7595 </r>
       <r>     3.0769     5.8933    24.1211 </r>
       <r>     3.1383     8.0233    24.6134 </r>
       <r>     3.1996     6.7427    25.0271 </r>
       <r>     3.2610     2.8690    25.2032 </r>
       <r>     3.3224     3.3867    25.4110 </r>
       <r>     3.3837     7.0652    25.8445 </r>
       <r>     3.4451     8.5332    26.3681 </r>
       <r>     3.5064     5.8066    26.7244 </r>
       <r>     3.5678     5.7318    27.0761 </r>
       <r>     3.6292     4.6238    27.3598 </r>
       <r>     3.6905     1.8162    27.4713 </r>
       <r>     3.7519     3.2816    27.6726 </r>
       <r>     3.8132     6.3604    28.0629 </r>
       <r>     3.8746     7.4992    28.5230 </r>
       <r>     3.9360     6.9436    28.9491 </r>
       <r>     3.9973     5.4919    29.2861 </r>
       <r>     4.0587     3.7811    29.5181 </r>
       <r>     4.1200     3.1956    29.7142 </r>
       <r>     4.1814     2.8965    29.8919 </r>
       <r>     4.2428     2.9227    30.0712 </r>
       <r>     4.3041     4.6192    30.3547 </r>
       <r>     4.3655     5.2724    30.6782 </r>
       <r>     4.4268     3.6398    30.9015 </r>
       <r>     4.4882     2.2716    31.0409 </r>
       <r>     4.5495     1.1377    31.1107 </r>
       <r>     4.6109     0.5496    31.1444 </r>
       <r>     4.6723     2.0756    31.2718 </r>
       <r>     4.7336     3.2790    31.4730 </r>
       <r>     4.7950     1.8104    31.5841 </r>
       <r>     4.8563     0.4495    31.6117 </r>
       <r>     4.9177     0.8660    31.6648 </r>
       <r>     4.9791     1.6596    31.7666 </r>
       <r>     5.0404     1.3092    31.8470 </r>
       <r>     5.1018     0.9390    31.9046 </r>
       <r>     5.1631     0.7876    31.9529 </r>
       <r>     5.2245     0.1905    31.9646 </r>
       <r>     5.2859     0.2671    31.9810 </r>
       <r>     5.3472     0.2898    31.9988 </r>
       <r>     5.4086     0.0380    32.0011 </r>
       <r>     5.4699    -0.0190    31.9999 </r>
       <r>     5.5313    -0.0005    31.9999 </r>
       <r>     5.5927     0.0013    32.0000 </r>
       <r>     5.6540     0.0002    32.0000 </r>
       <r>     5.7154     0.0003    32.0000 </r>
       <r>     5.7767     0.0019    32.0001 </r>
       <r>     5.8381    -0.0041    31.9999 </r>
       <r>     5.8995    -0.0234    31.9984 </r>
       <r>     5.9608     0.0998    32.0046 </r>
       <r>     6.0222     0.3023    32.0231 </r>
       <r>     6.0835     0.2492    32.0384 </r>
       <r>     6.1449     0.2016    32.0508 </r>
       <r>     6.2063     0.4088    32.0759 </r>
       <r>     6.2676     1.4876    32.1671 </r>
       <r>     6.3290     2.0570    32.2934 </r>
       <r>     6.3903     1.9621    32.4137 </r>
       <r>     6.4517     1.5496    32.5088 </r>
       <r>     6.5131     0.8425    32.5605 </r>
       <r>     6.5744     1.8269    32.6726 </r>
       <r>     6.6358     3.1517    32.8660 </r>
       <r>     6.6971     2.7593    33.0353 </r>
       <r>     6.7585     1.9765    33.1566 </r>
       <r>     6.8199     2.0203    33.2806 </r>
       <r>     6.8812     0.7818    33.3285 </r>
       <r>     6.9426     1.8516    33.4421 </r>
       <r>     7.0039     6.5142    33.8419 </r>
       <r>     7.0653     6.8251    34.2606 </r>
       <r>     7.1267     4.4593    34.5343 </r>
       <r>     7.1880     3.6474    34.7581 </r>
       <r>     7.2494     1.3572    34.8413 </r>
       <r>     7.3107     2.6675    35.0050 </r>
       <r>     7.3721     7.2508    35.4499 </r>
       <r>     7.4335     9.1026    36.0085 </r>
       <r>     7.4948     6.1653    36.3868 </r>
       <r>     7.5562     5.6012    36.7304 </r>
       <r>     7.6175     7.6180    37.1979 </r>
       <r>     7.6789     6.7173    37.6101 </r>
       <r>     7.7403     4.0598    37.8592 </r>
       <r>     7.8016     4.6339    38.1435 </r>
       <r>     7.8630     5.8365    38.5016 </r>
       <r>     7.9243     4.5729    38.7822 </r>
       <r>     7.9857     6.1588    39.1601 </r>
       <r>     8.0471     7.2588    39.6055 </r>
       <r>     8.1084     5.6206    39.9504 </r>
       <r>     8.1698     4.2074    40.2086 </r>
       <r>     8.2311     3.3902    40.4166 </r>
       <r>     8.2925     2.9683    40.5987 </r>
       <r>     8.3539     4.0549    40.8475 </r>
       <r>     8.4152     5.1595    41.1641 </r>
       <r>     8.4766     4.6883    41.4518 </r>
       <r>     8.5379     3.9941    41.6969 </r>
       <r>     8.5993     7.7396    42.1718 </r>
       <r>     8.6606    10.6864    42.8275 </r>
       <r>     8.7220     7.0729    43.2615 </r>
       <r>     8.7834     5.8752    43.6220 </r>
       <r>     8.8447     6.7909    44.0386 </r>
       <r>     8.9061     5.6739    44.3868 </r>
       <r>     8.9674     5.9202    44.7501 </r>
       <r>     9.0288     6.3505    45.1397 </r>
       <r>     9.0902     6.7728    45.5553 </r>
       <r>     9.1515     5.1102    45.8689 </r>
       <r>     9.2129     4.7106    46.1579 </r>
       <r>     9.2742     5.3638    46.4870 </r>
       <r>     9.3356     2.8980    46.6648 </r>
       <r>     9.3970     2.2276    46.8015 </r>
       <r>     9.4583     4.6951    47.0896 </r>
       <r>     9.5197     3.0515    47.2769 </r>
       <r>     9.5810     0.8064    47.3263 </r>
       <r>     9.6424     1.8491    47.4398 </r>
       <r>     9.7038     2.5114    47.5939 </r>
       <r>     9.7651     2.8566    47.7692 </r>
       <r>     9.8265     2.0747    47.8965 </r>
       <r>     9.8878     0.5810    47.9321 </r>
       <r>     9.9492     0.0452    47.9349 </r>
       <r>    10.0106    -0.0670    47.9308 </r>
       <r>    10.0719     0.1619    47.9407 </r>
       <r>    10.1333     0.6305    47.9794 </r>
       <r>    10.1946     0.3790    48.0027 </r>
       <r>    10.2560    -0.0241    48.0012 </r>
       <r>    10.3174    -0.0248    47.9997 </r>
       <r>    10.3787     0.0039    47.9999 </r>
       <r>    10.4401     0.0013    48.0000 </r>
       <r>    10.5014     0.0001    48.0000 </r>
       <r>    10.5628     0.0000    48.0000 </r>
       <r>    10.6242     0.0000    48.0000 </r>
       <r>    10.6855     0.0000    48.0000 </r>
       <r>    10.7469     0.0000    48.0000 </r>
       <r>    10.8082     0.0000    48.0000 </r>
       <r>    10.8696     0.0000    48.0000 </r>
       <r>    10.9310     0.0000    48.0000 </r>
       <r>    10.9923     0.0000    48.0000 </r>
       <r>    11.0537     0.0000    48.0000 </r>
       <r>    11.1150     0.0000    48.0000 </r>
      </set>
     </set>
    </array>
   </total>
  </dos>
 </calculation>
 <structure name="finalpos" >
  <crystal>
   <varray name="basis" >
    <v>       5.52375479       0.00000000       0.00000000 </v>
    <v>       0.00000000       5.52375479       0.00000000 </v>
    <v>       0.00000000       0.00000000       5.52375479 </v>
   </varray>
   <i name="volume">    168.54007152 </i>
   <varray name="rec_basis" >
    <v>       0.18103628       0.00000000       0.00000000 </v>
    <v>       0.00000000       0.18103628       0.00000000 </v>
    <v>       0.00000000       0.00000000       0.18103628 </v>
   </varray>
  </crystal>
  <varray name="positions" >
   <v>       0.00000000       0.00000000       0.00000000 </v>
   <v>       0.25000000       0.25000000       0.25000000 </v>
   <v>       0.50000000       0.50000000       0.00000000 </v>
   <v>       0.75000000       0.75000000       0.25000000 </v>
   <v>       0.50000000       0.00000000       0.50000000 </v>
   <v>       0.75000000       0.25000000       0.75000000 </v>
   <v>       0.00000000       0.50000000       0.50000000 </v>
   <v>       0.25000000       0.75000000       0.75000000 </v>
  </varray>
 </structure>
</modeling>
