<?xml version="1.0" encoding="ISO-8859-1"?>
<modeling>
 <generator>
  <i name="program" type="string">vasp </i>
  <i name="version" type="string">5.4.1  </i>
  <i name="subversion" type="string">24Jun15 (build Jul  8 2015 13:29:37) complex                          parallel </i>
  <i name="platform" type="string">FX10FRT </i>
  <i name="date" type="string">2016 02 20 </i>
  <i name="time" type="string">07:07:10 </i>
 </generator>
 <incar>
  <i type="string" name="PREC">accurate</i>
  <i type="string" name="ALGO"> Normal</i>
  <i type="int" name="ISPIN">     1</i>
  <i type="int" name="IBRION">    -1</i>
  <i name="EDIFF">      0.00010000</i>
  <i type="int" name="NSW">     0</i>
  <i type="int" name="ISIF">     2</i>
  <i name="ENCUT">    400.00000000</i>
  <i type="int" name="ISMEAR">     2</i>
  <i name="SIGMA">      0.10000000</i>
  <i type="int" name="NWRITE">     1</i>
  <v type="int" name="KPOINT_BSE">    -1     0     0     0</v>
 </incar>
 <kpoints>
  <generation param="Monkhorst-Pack">
   <v type="int" name="divisions">       6        6        6 </v>
   <v name="usershift">      0.00000000       0.00000000       0.00000000 </v>
   <v name="genvec1">      0.16666667       0.00000000       0.00000000 </v>
   <v name="genvec2">      0.00000000       0.16666667       0.00000000 </v>
   <v name="genvec3">      0.00000000       0.00000000       0.16666667 </v>
   <v name="shift">      0.50000000       0.50000000       0.50000000 </v>
  </generation>
  <varray name="kpointlist" >
   <v>       0.08333333       0.08333333       0.08333333 </v>
   <v>       0.25000000       0.08333333       0.08333333 </v>
   <v>       0.41666667       0.08333333       0.08333333 </v>
   <v>       0.25000000       0.25000000       0.08333333 </v>
   <v>       0.41666667       0.25000000       0.08333333 </v>
   <v>       0.41666667       0.41666667       0.08333333 </v>
   <v>       0.25000000       0.25000000       0.25000000 </v>
   <v>       0.41666667       0.25000000       0.25000000 </v>
   <v>       0.41666667       0.41666667       0.25000000 </v>
   <v>       0.41666667       0.41666667       0.41666667 </v>
  </varray>
  <varray name="weights" >
   <v>       0.03703704 </v>
   <v>       0.11111111 </v>
   <v>       0.11111111 </v>
   <v>       0.11111111 </v>
   <v>       0.22222222 </v>
   <v>       0.11111111 </v>
   <v>       0.03703704 </v>
   <v>       0.11111111 </v>
   <v>       0.11111111 </v>
   <v>       0.03703704 </v>
  </varray>
 </kpoints>
 <parameters>
  <separator name="general" >
   <i type="string" name="SYSTEM">unknown system</i>
   <i type="logical" name="LCOMPAT"> F  </i>
  </separator>
  <separator name="electronic" >
   <i type="string" name="PREC">accura</i>
   <i name="ENMAX">    400.00000000</i>
   <i name="ENAUG">    322.06900000</i>
   <i name="EDIFF">      0.00010000</i>
   <i type="int" name="IALGO">    38</i>
   <i type="int" name="IWAVPR">    10</i>
   <i type="int" name="NBANDS">    24</i>
   <i name="NELECT">     32.00000000</i>
   <i type="int" name="TURBO">     0</i>
   <i type="int" name="IRESTART">     0</i>
   <i type="int" name="NREBOOT">     0</i>
   <i type="int" name="NMIN">     0</i>
   <i name="EREF">      0.00000000</i>
   <separator name="electronic smearing" >
    <i type="int" name="ISMEAR">     2</i>
    <i name="SIGMA">      0.10000000</i>
    <i name="KSPACING">      0.50000000</i>
    <i type="logical" name="KGAMMA"> T  </i>
   </separator>
   <separator name="electronic projectors" >
    <i type="logical" name="LREAL"> F  </i>
    <v name="ROPT">      0.00000000</v>
    <i type="int" name="LMAXPAW">  -100</i>
    <i type="int" name="LMAXMIX">     2</i>
    <i type="logical" name="NLSPLINE"> F  </i>
   </separator>
   <separator name="electronic startup" >
    <i type="int" name="ISTART">     0</i>
    <i type="int" name="ICHARG">     2</i>
    <i type="int" name="INIWAV">     1</i>
   </separator>
   <separator name="electronic spin" >
    <i type="int" name="ISPIN">     1</i>
    <i type="logical" name="LNONCOLLINEAR"> F  </i>
    <v name="MAGMOM">      1.00000000      1.00000000      1.00000000      1.00000000      1.00000000      1.00000000      1.00000000      1.00000000</v>
    <i name="NUPDOWN">     -1.00000000</i>
    <i type="logical" name="LSORBIT"> F  </i>
    <v name="SAXIS">      0.00000000      0.00000000      1.00000000</v>
    <i type="logical" name="LSPIRAL"> F  </i>
    <v name="QSPIRAL">      0.00000000      0.00000000      0.00000000</v>
    <i type="logical" name="LZEROZ"> F  </i>
   </separator>
   <separator name="electronic exchange-correlation" >
    <i type="logical" name="LASPH"> F  </i>
    <i type="logical" name="LMETAGGA"> F  </i>
   </separator>
   <separator name="electronic convergence" >
    <i type="int" name="NELM">    60</i>
    <i type="int" name="NELMDL">    -5</i>
    <i type="int" name="NELMIN">     2</i>
    <i name="ENINI">    400.00000000</i>
    <separator name="electronic convergence detail" >
     <i type="logical" name="LDIAG"> T  </i>
     <i type="logical" name="LSUBROT"> F  </i>
     <i name="WEIMIN">      0.00000000</i>
     <i name="EBREAK">      0.00000104</i>
     <i name="DEPER">      0.30000000</i>
     <i type="int" name="NRMM">     4</i>
     <i name="TIME">      0.40000000</i>
    </separator>
   </separator>
   <separator name="electronic mixer" >
    <i name="AMIX">      0.40000000</i>
    <i name="BMIX">      1.00000000</i>
    <i name="AMIN">      0.10000000</i>
    <i name="AMIX_MAG">      1.60000000</i>
    <i name="BMIX_MAG">      1.00000000</i>
    <separator name="electronic mixer details" >
     <i type="int" name="IMIX">     4</i>
     <i type="logical" name="MIXFIRST"> F  </i>
     <i type="int" name="MAXMIX">   -45</i>
     <i name="WC">    100.00000000</i>
     <i type="int" name="INIMIX">     1</i>
     <i type="int" name="MIXPRE">     1</i>
     <i type="int" name="MREMOVE">     5</i>
    </separator>
   </separator>
   <separator name="electronic dipolcorrection" >
    <i type="logical" name="LDIPOL"> F  </i>
    <i type="logical" name="LMONO"> F  </i>
    <i type="int" name="IDIPOL">     0</i>
    <i name="EPSILON">      1.00000000</i>
    <v name="DIPOL">   -100.00000000   -100.00000000   -100.00000000</v>
    <i name="EFIELD">      0.00000000</i>
   </separator>
  </separator>
  <separator name="grids" >
   <i type="int" name="NGX">    54</i>
   <i type="int" name="NGY">    54</i>
   <i type="int" name="NGZ">    54</i>
   <i type="int" name="NGXF">   108</i>
   <i type="int" name="NGYF">   108</i>
   <i type="int" name="NGZF">   108</i>
   <i type="logical" name="ADDGRID"> F  </i>
  </separator>
  <separator name="ionic" >
   <i type="int" name="NSW">     0</i>
   <i type="int" name="IBRION">    -1</i>
   <i type="int" name="ISIF">     2</i>
   <i name="PSTRESS">      0.00000000</i>
   <i name="EDIFFG">      0.00100000</i>
   <i type="int" name="NFREE">     0</i>
   <i name="POTIM">      0.50000000</i>
   <i name="SMASS">     -3.00000000</i>
   <i name="SCALEE">      1.00000000</i>
  </separator>
  <separator name="ionic md" >
   <i name="TEBEG">      0.00010000</i>
   <i name="TEEND">      0.00010000</i>
   <i type="int" name="NBLOCK">     1</i>
   <i type="int" name="KBLOCK">     1</i>
   <i type="int" name="NPACO">   256</i>
   <i name="APACO">     16.00000000</i>
  </separator>
  <separator name="symmetry" >
   <i type="int" name="ISYM">     2</i>
   <i name="SYMPREC">      0.00001000</i>
  </separator>
  <separator name="dos" >
   <i type="logical" name="LORBIT"> F  </i>
   <v name="RWIGS">     -1.00000000</v>
   <i type="int" name="NEDOS">   301</i>
   <i name="EMIN">     10.00000000</i>
   <i name="EMAX">    -10.00000000</i>
   <i name="EFERMI">      0.00000000</i>
  </separator>
  <separator name="writing" >
   <i type="int" name="NWRITE">     1</i>
   <i type="logical" name="LWAVE"> T  </i>
   <i type="logical" name="LCHARG"> T  </i>
   <i type="logical" name="LPARD"> F  </i>
   <i type="logical" name="LVTOT"> F  </i>
   <i type="logical" name="LVHAR"> F  </i>
   <i type="logical" name="LELF"> F  </i>
   <i type="logical" name="LOPTICS"> F  </i>
   <v name="STM">      0.00000000      0.00000000      0.00000000      0.00000000      0.00000000      0.00000000      0.00000000</v>
  </separator>
  <separator name="performance" >
   <i type="int" name="NPAR">     8</i>
   <i type="int" name="NSIM">     4</i>
   <i type="int" name="NBLK">    -1</i>
   <i type="logical" name="LPLANE"> T  </i>
   <i type="logical" name="LSCALAPACK"> T  </i>
   <i type="logical" name="LSCAAWARE"> F  </i>
   <i type="logical" name="LSCALU"> F  </i>
   <i type="logical" name="LASYNC"> F  </i>
   <i type="logical" name="LORBITALREAL"> F  </i>
  </separator>
  <separator name="miscellaneous" >
   <i type="int" name="IDIOT">     3</i>
   <i type="logical" name="LMUSIC"> F  </i>
   <v name="POMASS">     28.08500000</v>
   <v name="DARWINR">      0.00000000</v>
   <v name="DARWINV">      1.00000000</v>
   <i type="logical" name="LCORR"> T  </i>
  </separator>
  <i type="logical" name="GGA_COMPAT"> T  </i>
  <i type="logical" name="LBERRY"> F  </i>
  <i type="int" name="ICORELEVEL">     0</i>
  <i type="logical" name="LDAU"> F  </i>
  <i type="int" name="I_CONSTRAINED_M">     0</i>
  <separator name="electronic exchange-correlation" >
   <i type="string" name="GGA">--</i>
   <i type="int" name="VOSKOWN">     0</i>
   <i type="logical" name="LHFCALC"> F  </i>
   <i type="string" name="PRECFOCK"></i>
   <i type="logical" name="LSYMGRAD"> F  </i>
   <i type="logical" name="LHFONE"> F  </i>
   <i type="logical" name="LRHFCALC"> F  </i>
   <i type="logical" name="LTHOMAS"> F  </i>
   <i type="logical" name="LMODELHF"> F  </i>
   <i name="ENCUT4O">     -1.00000000</i>
   <i type="int" name="EXXOEP">     0</i>
   <i type="int" name="FOURORBIT">     0</i>
   <i name="AEXX">      0.00000000</i>
   <i name="HFALPHA">      0.00000000</i>
   <i name="MCALPHA">      0.00000000</i>
   <i name="ALDAX">      1.00000000</i>
   <i name="AGGAX">      1.00000000</i>
   <i name="ALDAC">      1.00000000</i>
   <i name="AGGAC">      1.00000000</i>
   <i type="int" name="NKREDX">     1</i>
   <i type="int" name="NKREDY">     1</i>
   <i type="int" name="NKREDZ">     1</i>
   <i type="logical" name="SHIFTRED"> F  </i>
   <i type="logical" name="ODDONLY"> F  </i>
   <i type="logical" name="EVENONLY"> F  </i>
   <i type="int" name="LMAXFOCK">     0</i>
   <i type="int" name="NMAXFOCKAE">     0</i>
   <i type="logical" name="LFOCKAEDFT"> F  </i>
   <i name="HFSCREEN">      0.00000000</i>
   <i name="HFSCREENC">      0.00000000</i>
   <i type="int" name="NBANDSGWLOW">     0</i>
  </separator>
  <separator name="vdW DFT" >
   <i type="logical" name="LUSE_VDW"> F  </i>
   <i name="Zab_VDW">     -0.84910000</i>
   <i name="PARAM1">      0.12340000</i>
   <i name="PARAM2">      1.00000000</i>
   <i name="PARAM3">      0.00000000</i>
  </separator>
  <separator name="model GW" >
   <i type="int" name="MODEL_GW">     0</i>
   <i name="MODEL_EPS0">     36.93494409</i>
   <i name="MODEL_ALPHA">      1.00000000</i>
  </separator>
  <separator name="linear response parameters" >
   <i type="logical" name="LEPSILON"> F  </i>
   <i type="logical" name="LRPA"> F  </i>
   <i type="logical" name="LNABLA"> F  </i>
   <i type="logical" name="LVEL"> F  </i>
   <i type="int" name="KINTER">     0</i>
   <i name="CSHIFT">      0.10000000</i>
   <i name="OMEGAMAX">     -1.00000000</i>
   <i name="DEG_THRESHOLD">      0.00200000</i>
  </separator>
  <separator name="orbital magnetization" >
   <i type="logical" name="NUCIND"> F  </i>
   <v name="MAGPOS">      0.00000000      0.00000000      0.00000000</v>
   <i type="logical" name="LNICSALL"> T  </i>
   <i type="logical" name="ORBITALMAG"> F  </i>
   <i type="logical" name="LMAGBLOCH"> F  </i>
   <i type="logical" name="LCHIMAG"> F  </i>
   <i type="logical" name="LGAUGE"> T  </i>
   <i type="int" name="MAGATOM">     0</i>
   <v name="MAGDIPOL">      0.00000000      0.00000000      0.00000000</v>
   <v name="AVECCONST">      0.00000000      0.00000000      0.00000000</v>
  </separator>
  <separator name="response functions" >
   <i type="logical" name="LADDER"> F  </i>
   <i type="logical" name="LFXC"> F  </i>
   <i type="logical" name="LHARTREE"> T  </i>
   <i type="int" name="IBSE">     0</i>
   <v type="int" name="KPOINT">    -1     0     0     0</v>
   <i type="logical" name="LTCTE"> F  </i>
   <i type="logical" name="LTETE"> F  </i>
   <i type="logical" name="LTRIPLET"> F  </i>
   <i type="logical" name="LFXCEPS"> F  </i>
   <i type="logical" name="LFXHEG"> F  </i>
   <i type="int" name="NATURALO">     0</i>
   <i type="logical" name="L2ORDER"> F  </i>
   <i type="logical" name="LUSEW"> F  </i>
   <i name="ENCUTGW">     -2.00000000</i>
   <i name="ENCUTGWSOFT">     -2.00000000</i>
   <i name="ENCUTLF">     -1.00000000</i>
   <i type="int" name="LMAXMP2">    -1</i>
   <i name="SCISSOR">      0.00000000</i>
   <i type="int" name="NOMEGA">     0</i>
   <i type="int" name="NOMEGAR">     0</i>
   <i type="int" name="NBANDSGW">    -1</i>
   <i type="int" name="NBANDSO">    -1</i>
   <i type="int" name="NBANDSV">    -1</i>
   <i type="int" name="NELM">     1</i>
   <i type="int" name="NELMHF">     1</i>
   <i type="int" name="DIM">     3</i>
   <i type="int" name="ANTIRES">     0</i>
   <i name="OMEGAMAX">    -30.00000000</i>
   <i name="OMEGAMIN">    -30.00000000</i>
   <i name="OMEGATL">   -200.00000000</i>
   <i type="int" name="OMEGAGRID">     0</i>
   <i name="CSHIFT">     -0.10000000</i>
   <i type="logical" name="SELFENERGY"> F  </i>
   <i type="logical" name="LSPECTRAL"> F  </i>
   <i type="logical" name="LSPECTRALGW"> F  </i>
   <i type="logical" name="LSINGLES"> F  </i>
   <i type="logical" name="LFERMIGW"> F  </i>
   <i type="logical" name="ODDONLYGW"> F  </i>
   <i type="logical" name="EVENONLYGW"> F  </i>
   <i type="int" name="NKREDLFX">     1</i>
   <i type="int" name="NKREDLFY">     1</i>
   <i type="int" name="NKREDLFZ">     1</i>
   <i type="int" name="MAXMEM">  1800</i>
   <i type="int" name="TELESCOPE">     0</i>
   <i type="int" name="TAUPAR">     1</i>
   <i type="int" name="OMEGAPAR">    -1</i>
   <i name="LAMBDA">      1.00000000</i>
  </separator>
  <separator name="External order field" >
   <i name="OFIELD_KAPPA">      0.00000000</i>
   <v name="OFIELD_K">      0.00000000      0.00000000      0.00000000</v>
   <i name="OFIELD_Q6_NEAR">      0.00000000</i>
   <i name="OFIELD_Q6_FAR">      0.00000000</i>
   <i name="OFIELD_A">      0.00000000</i>
  </separator>
 </parameters>
 <atominfo>
  <atoms>       8 </atoms>
  <types>       1 </types>
  <array name="atoms" >
   <dimension dim="1">ion</dimension>
   <field type="string">element</field>
   <field type="int">atomtype</field>
   <set>
    <rc><c>Si</c><c>   1</c></rc>
    <rc><c>Si</c><c>   1</c></rc>
    <rc><c>Si</c><c>   1</c></rc>
    <rc><c>Si</c><c>   1</c></rc>
    <rc><c>Si</c><c>   1</c></rc>
    <rc><c>Si</c><c>   1</c></rc>
    <rc><c>Si</c><c>   1</c></rc>
    <rc><c>Si</c><c>   1</c></rc>
   </set>
  </array>
  <array name="atomtypes" >
   <dimension dim="1">type</dimension>
   <field type="int">atomspertype</field>
   <field type="string">element</field>
   <field>mass</field>
   <field>valence</field>
   <field type="string">pseudopotential</field>
   <set>
    <rc><c>   8</c><c>Si</c><c>     28.08500000</c><c>      4.00000000</c><c>  PAW_PBE Si 05Jan2001                  </c></rc>
   </set>
  </array>
 </atominfo>
 <structure name="initialpos" >
  <crystal>
   <varray name="basis" >
    <v>       7.89693799       0.00000000       0.00000000 </v>
    <v>       0.00000000       7.89693799       0.00000000 </v>
    <v>       0.00000000       0.00000000       7.89693799 </v>
   </varray>
   <i name="volume">    492.46592114 </i>
   <varray name="rec_basis" >
    <v>       0.12663136       0.00000000       0.00000000 </v>
    <v>       0.00000000       0.12663136       0.00000000 </v>
    <v>       0.00000000       0.00000000       0.12663136 </v>
   </varray>
  </crystal>
  <varray name="positions" >
   <v>       0.00000000       0.00000000       0.00000000 </v>
   <v>       0.25000000       0.25000000       0.25000000 </v>
   <v>       0.50000000       0.50000000       0.00000000 </v>
   <v>       0.75000000       0.75000000       0.25000000 </v>
   <v>       0.50000000       0.00000000       0.50000000 </v>
   <v>       0.75000000       0.25000000       0.75000000 </v>
   <v>       0.00000000       0.50000000       0.50000000 </v>
   <v>       0.25000000       0.75000000       0.75000000 </v>
  </varray>
 </structure>
 <calculation>
  <scstep>
   <time name="dav">    0.53    0.58</time>
   <time name="total">    0.64    0.71</time>
   <energy>
    <i name="alphaZ">      4.37480093 </i>
    <i name="ewald">   -628.64871790 </i>
    <i name="hartreedc">   -133.97219446 </i>
    <i name="XCdc">    -85.96119279 </i>
    <i name="pawpsdc">    704.99039692 </i>
    <i name="pawaedc">   -564.24414232 </i>
    <i name="eentropy">     -0.00422035 </i>
    <i name="bandstr">    -52.57745157 </i>
    <i name="atom">    824.52596983 </i>
    <i name="e_fr_energy">     68.48324828 </i>
    <i name="e_wo_entrp">     68.48746863 </i>
    <i name="e_0_energy">     68.48430337 </i>
   </energy>
  </scstep>
  <scstep>
   <time name="dav">    0.59    0.59</time>
   <time name="total">    0.59    0.62</time>
   <energy>
    <i name="e_fr_energy">    -15.06891049 </i>
    <i name="e_wo_entrp">    -15.07404673 </i>
    <i name="e_0_energy">    -15.07019455 </i>
   </energy>
  </scstep>
  <scstep>
   <time name="dav">    0.55    0.57</time>
   <time name="total">    0.58    0.58</time>
   <energy>
    <i name="e_fr_energy">    -21.79676027 </i>
    <i name="e_wo_entrp">    -21.79577577 </i>
    <i name="e_0_energy">    -21.79651415 </i>
   </energy>
  </scstep>
  <scstep>
   <time name="dav">    0.64    0.64</time>
   <time name="total">    0.65    0.66</time>
   <energy>
    <i name="e_fr_energy">    -22.02277912 </i>
    <i name="e_wo_entrp">    -22.02279319 </i>
    <i name="e_0_energy">    -22.02278264 </i>
   </energy>
  </scstep>
  <scstep>
   <time name="dav">    0.58    0.59</time>
   <time name="total">    0.72    0.75</time>
   <energy>
    <i name="e_fr_energy">    -22.03108813 </i>
    <i name="e_wo_entrp">    -22.03116261 </i>
    <i name="e_0_energy">    -22.03110675 </i>
   </energy>
  </scstep>
  <scstep>
   <time name="dav">    0.57    0.57</time>
   <time name="total">    0.77    0.79</time>
   <energy>
    <i name="e_fr_energy">    -22.04918825 </i>
    <i name="e_wo_entrp">    -22.04967284 </i>
    <i name="e_0_energy">    -22.04930940 </i>
   </energy>
  </scstep>
  <scstep>
   <time name="dav">    0.54    0.54</time>
   <time name="total">    0.76    0.76</time>
   <energy>
    <i name="e_fr_energy">    -22.06877588 </i>
    <i name="e_wo_entrp">    -22.06965190 </i>
    <i name="e_0_energy">    -22.06899489 </i>
   </energy>
  </scstep>
  <scstep>
   <time name="dav">    0.61    0.61</time>
   <time name="total">    0.81    0.83</time>
   <energy>
    <i name="e_fr_energy">    -22.07033641 </i>
    <i name="e_wo_entrp">    -22.07121813 </i>
    <i name="e_0_energy">    -22.07055684 </i>
   </energy>
  </scstep>
  <scstep>
   <time name="dav">    0.54    0.54</time>
   <time name="total">    0.76    0.76</time>
   <energy>
    <i name="e_fr_energy">    -22.07076375 </i>
    <i name="e_wo_entrp">    -22.07166186 </i>
    <i name="e_0_energy">    -22.07098827 </i>
   </energy>
  </scstep>
  <scstep>
   <time name="dav">    0.54    0.54</time>
   <time name="total">    0.74    0.76</time>
   <energy>
    <i name="e_fr_energy">    -22.07096909 </i>
    <i name="e_wo_entrp">    -22.07188418 </i>
    <i name="e_0_energy">    -22.07119786 </i>
   </energy>
  </scstep>
  <scstep>
   <time name="dav">    0.45    0.44</time>
   <time name="total">    0.53    0.54</time>
   <energy>
    <i name="alphaZ">      4.37480093 </i>
    <i name="ewald">   -628.64871790 </i>
    <i name="hartreedc">   -131.69329088 </i>
    <i name="XCdc">    -86.26832508 </i>
    <i name="pawpsdc">    721.78104642 </i>
    <i name="pawaedc">   -580.67398344 </i>
    <i name="eentropy">      0.00092001 </i>
    <i name="bandstr">   -145.46941500 </i>
    <i name="atom">    824.52596983 </i>
    <i name="e_fr_energy">    -22.07099510 </i>
    <i name="e_wo_entrp">    -22.07191511 </i>
    <i name="e_0_energy">    -22.07122510 </i>
   </energy>
  </scstep>
  <structure>
   <crystal>
    <varray name="basis" >
     <v>       7.89693799       0.00000000       0.00000000 </v>
     <v>       0.00000000       7.89693799       0.00000000 </v>
     <v>       0.00000000       0.00000000       7.89693799 </v>
    </varray>
    <i name="volume">    492.46592114 </i>
    <varray name="rec_basis" >
     <v>       0.12663136       0.00000000       0.00000000 </v>
     <v>       0.00000000       0.12663136       0.00000000 </v>
     <v>       0.00000000       0.00000000       0.12663136 </v>
    </varray>
   </crystal>
   <varray name="positions" >
    <v>       0.00000000       0.00000000       0.00000000 </v>
    <v>       0.25000000       0.25000000       0.25000000 </v>
    <v>       0.50000000       0.50000000       0.00000000 </v>
    <v>       0.75000000       0.75000000       0.25000000 </v>
    <v>       0.50000000       0.00000000       0.50000000 </v>
    <v>       0.75000000       0.25000000       0.75000000 </v>
    <v>       0.00000000       0.50000000       0.50000000 </v>
    <v>       0.25000000       0.75000000       0.75000000 </v>
   </varray>
  </structure>
  <varray name="forces" >
   <v>       0.00000000       0.00000000       0.00000000 </v>
   <v>       0.00000000       0.00000000       0.00000000 </v>
   <v>       0.00000000       0.00000000       0.00000000 </v>
   <v>       0.00000000       0.00000000       0.00000000 </v>
   <v>       0.00000000       0.00000000       0.00000000 </v>
   <v>       0.00000000       0.00000000       0.00000000 </v>
   <v>       0.00000000       0.00000000       0.00000000 </v>
   <v>       0.00000000       0.00000000       0.00000000 </v>
  </varray>
  <varray name="stress" >
   <v>     -69.70267584       0.00000000       0.00000000 </v>
   <v>       0.00000000     -69.70267584       0.00000000 </v>
   <v>       0.00000000       0.00000000     -69.70267584 </v>
  </varray>
  <energy>
   <i name="e_fr_energy">    -22.07099510 </i>
   <i name="e_wo_entrp">    -22.07122510 </i>
   <i name="e_0_energy">      0.00092001 </i>
  </energy>
  <time name="totalsc">   12.26   12.54</time>
  <eigenvalues>
   <array>
    <dimension dim="1">band</dimension>
    <dimension dim="2">kpoint</dimension>
    <dimension dim="3">spin</dimension>
    <field>eigene</field>
    <field>occ</field>
    <set>
     <set comment="spin 1">
      <set comment="kpoint 1">
       <r>   -8.4834    1.0000 </r>
       <r>   -7.5103    1.0000 </r>
       <r>   -7.5103    1.0000 </r>
       <r>   -7.5103    1.0000 </r>
       <r>   -7.1688    1.0000 </r>
       <r>   -7.1688    1.0000 </r>
       <r>   -7.1688    1.0000 </r>
       <r>   -5.7212    1.0000 </r>
       <r>   -1.9994    1.0000 </r>
       <r>   -1.9994    1.0000 </r>
       <r>   -1.9994    1.0000 </r>
       <r>   -1.9326    1.0000 </r>
       <r>   -1.9326    1.0000 </r>
       <r>   -1.9326    1.0000 </r>
       <r>   -1.1396   -0.0416 </r>
       <r>   -1.1396   -0.0416 </r>
       <r>   -1.1268   -0.0513 </r>
       <r>   -0.3121    0.0000 </r>
       <r>   -0.3121    0.0000 </r>
       <r>   -0.3121    0.0000 </r>
       <r>   -0.1724    0.0000 </r>
       <r>   -0.1724    0.0000 </r>
       <r>   -0.1724    0.0000 </r>
       <r>    0.4988    0.0000 </r>
      </set>
      <set comment="kpoint 2">
       <r>   -8.4128    1.0000 </r>
       <r>   -7.8140    1.0000 </r>
       <r>   -7.5078    1.0000 </r>
       <r>   -7.5078    1.0000 </r>
       <r>   -7.1698    1.0000 </r>
       <r>   -7.1698    1.0000 </r>
       <r>   -6.8119    1.0000 </r>
       <r>   -5.8685    1.0000 </r>
       <r>   -2.0972    1.0000 </r>
       <r>   -2.0972    1.0000 </r>
       <r>   -1.9396    1.0000 </r>
       <r>   -1.9396    1.0000 </r>
       <r>   -1.9189    1.0000 </r>
       <r>   -1.8572    1.0000 </r>
       <r>   -1.3122    1.0512 </r>
       <r>   -1.2994    1.0406 </r>
       <r>   -0.9957    0.0039 </r>
       <r>   -0.3850    0.0000 </r>
       <r>   -0.2529    0.0000 </r>
       <r>   -0.2529    0.0000 </r>
       <r>   -0.1160    0.0000 </r>
       <r>    0.0890    0.0000 </r>
       <r>    0.0890    0.0000 </r>
       <r>    0.3635    0.0000 </r>
      </set>
      <set comment="kpoint 3">
       <r>   -8.2741    1.0000 </r>
       <r>   -8.0721    1.0000 </r>
       <r>   -7.5053    1.0000 </r>
       <r>   -7.5053    1.0000 </r>
       <r>   -7.1709    1.0000 </r>
       <r>   -7.1709    1.0000 </r>
       <r>   -6.4556    1.0000 </r>
       <r>   -6.1284    1.0000 </r>
       <r>   -2.1617    1.0000 </r>
       <r>   -2.1617    1.0000 </r>
       <r>   -1.9735    1.0000 </r>
       <r>   -1.9735    1.0000 </r>
       <r>   -1.7639    1.0000 </r>
       <r>   -1.7128    1.0000 </r>
       <r>   -1.5498    0.9999 </r>
       <r>   -1.5153    0.9996 </r>
       <r>   -0.7729    0.0000 </r>
       <r>   -0.5464    0.0000 </r>
       <r>   -0.1314    0.0000 </r>
       <r>   -0.1314    0.0000 </r>
       <r>    0.0030    0.0000 </r>
       <r>    0.1749    0.0000 </r>
       <r>    0.3243    0.0000 </r>
       <r>    0.3243    0.0000 </r>
      </set>
      <set comment="kpoint 4">
       <r>   -8.3459    1.0000 </r>
       <r>   -7.7838    1.0000 </r>
       <r>   -7.7838    1.0000 </r>
       <r>   -7.5708    1.0000 </r>
       <r>   -7.1004    1.0000 </r>
       <r>   -6.8495    1.0000 </r>
       <r>   -6.8495    1.0000 </r>
       <r>   -5.9994    1.0000 </r>
       <r>   -2.1966    1.0000 </r>
       <r>   -2.0335    1.0000 </r>
       <r>   -2.0335    1.0000 </r>
       <r>   -1.8394    1.0000 </r>
       <r>   -1.8394    1.0000 </r>
       <r>   -1.8214    1.0000 </r>
       <r>   -1.4783    0.9984 </r>
       <r>   -1.2327    0.6345 </r>
       <r>   -1.0989   -0.0369 </r>
       <r>   -0.4258    0.0000 </r>
       <r>   -0.3895    0.0000 </r>
       <r>   -0.3895    0.0000 </r>
       <r>    0.1628    0.0000 </r>
       <r>    0.1628    0.0000 </r>
       <r>    0.4254    0.0000 </r>
       <r>    0.6034    0.0000 </r>
      </set>
      <set comment="kpoint 5">
       <r>   -8.2147    1.0000 </r>
       <r>   -8.0245    1.0000 </r>
       <r>   -7.7273    1.0000 </r>
       <r>   -7.6522    1.0000 </r>
       <r>   -7.0075    1.0000 </r>
       <r>   -6.9185    1.0000 </r>
       <r>   -6.5267    1.0000 </r>
       <r>   -6.2319    1.0000 </r>
       <r>   -2.2170    1.0000 </r>
       <r>   -2.1532    1.0000 </r>
       <r>   -1.8997    1.0000 </r>
       <r>   -1.8152    1.0000 </r>
       <r>   -1.7894    1.0000 </r>
       <r>   -1.7033    1.0000 </r>
       <r>   -1.6607    1.0000 </r>
       <r>   -1.4332    0.9954 </r>
       <r>   -0.8962    0.0001 </r>
       <r>   -0.6241    0.0000 </r>
       <r>   -0.4413    0.0000 </r>
       <r>   -0.3953    0.0000 </r>
       <r>    0.2916    0.0000 </r>
       <r>    0.4570    0.0000 </r>
       <r>    0.4934    0.0000 </r>
       <r>    0.6295    0.0000 </r>
      </set>
      <set comment="kpoint 6">
       <r>   -8.0989    1.0000 </r>
       <r>   -7.9331    1.0000 </r>
       <r>   -7.9331    1.0000 </r>
       <r>   -7.8051    1.0000 </r>
       <r>   -6.8237    1.0000 </r>
       <r>   -6.6560    1.0000 </r>
       <r>   -6.6560    1.0000 </r>
       <r>   -6.4177    1.0000 </r>
       <r>   -2.1857    1.0000 </r>
       <r>   -2.0684    1.0000 </r>
       <r>   -2.0684    1.0000 </r>
       <r>   -1.9069    1.0000 </r>
       <r>   -1.6285    1.0000 </r>
       <r>   -1.5958    1.0000 </r>
       <r>   -1.5958    1.0000 </r>
       <r>   -1.4101    0.9956 </r>
       <r>   -0.9284    0.0004 </r>
       <r>   -0.7024    0.0000 </r>
       <r>   -0.7024    0.0000 </r>
       <r>   -0.6619    0.0000 </r>
       <r>    0.6707    0.0000 </r>
       <r>    0.6707    0.0000 </r>
       <r>    0.7881    0.0000 </r>
       <r>    0.8334    0.0000 </r>
      </set>
      <set comment="kpoint 7">
       <r>   -8.2838    1.0000 </r>
       <r>   -7.7795    1.0000 </r>
       <r>   -7.7795    1.0000 </r>
       <r>   -7.7795    1.0000 </r>
       <r>   -6.8560    1.0000 </r>
       <r>   -6.8560    1.0000 </r>
       <r>   -6.8560    1.0000 </r>
       <r>   -6.1150    1.0000 </r>
       <r>   -2.0954    1.0000 </r>
       <r>   -2.0954    1.0000 </r>
       <r>   -2.0954    1.0000 </r>
       <r>   -1.7590    1.0000 </r>
       <r>   -1.7590    1.0000 </r>
       <r>   -1.7590    1.0000 </r>
       <r>   -1.3357    1.0415 </r>
       <r>   -1.3357    1.0415 </r>
       <r>   -1.3300    1.0459 </r>
       <r>   -0.5561    0.0000 </r>
       <r>   -0.5561    0.0000 </r>
       <r>   -0.5561    0.0000 </r>
       <r>    0.4572    0.0000 </r>
       <r>    0.4572    0.0000 </r>
       <r>    0.4572    0.0000 </r>
       <r>    0.7986    0.0000 </r>
      </set>
      <set comment="kpoint 8">
       <r>   -8.1629    1.0000 </r>
       <r>   -7.9904    1.0000 </r>
       <r>   -7.7752    1.0000 </r>
       <r>   -7.7752    1.0000 </r>
       <r>   -6.8626    1.0000 </r>
       <r>   -6.8626    1.0000 </r>
       <r>   -6.5786    1.0000 </r>
       <r>   -6.3200    1.0000 </r>
       <r>   -2.1290    1.0000 </r>
       <r>   -2.1290    1.0000 </r>
       <r>   -1.9011    1.0000 </r>
       <r>   -1.7155    1.0000 </r>
       <r>   -1.7155    1.0000 </r>
       <r>   -1.6422    1.0000 </r>
       <r>   -1.6329    1.0000 </r>
       <r>   -1.4898    0.9989 </r>
       <r>   -1.0842   -0.0229 </r>
       <r>   -0.7981    0.0000 </r>
       <r>   -0.6396    0.0000 </r>
       <r>   -0.6396    0.0000 </r>
       <r>    0.5480    0.0000 </r>
       <r>    0.6850    0.0000 </r>
       <r>    0.7050    0.0000 </r>
       <r>    0.7052    0.0000 </r>
      </set>
      <set comment="kpoint 9">
       <r>   -8.0640    1.0000 </r>
       <r>   -7.9282    1.0000 </r>
       <r>   -7.9282    1.0000 </r>
       <r>   -7.8502    1.0000 </r>
       <r>   -6.7706    1.0000 </r>
       <r>   -6.6676    1.0000 </r>
       <r>   -6.6676    1.0000 </r>
       <r>   -6.4754    1.0000 </r>
       <r>   -2.0617    1.0000 </r>
       <r>   -1.9672    1.0000 </r>
       <r>   -1.9672    1.0000 </r>
       <r>   -1.7676    1.0000 </r>
       <r>   -1.5976    1.0000 </r>
       <r>   -1.5801    1.0000 </r>
       <r>   -1.5801    1.0000 </r>
       <r>   -1.4368    0.9956 </r>
       <r>   -1.1799    0.1254 </r>
       <r>   -0.9323    0.0005 </r>
       <r>   -0.9323    0.0005 </r>
       <r>   -0.8756    0.0000 </r>
       <r>    0.8262    0.0000 </r>
       <r>    0.8265    0.0000 </r>
       <r>    0.8956    0.0000 </r>
       <r>    0.9652    0.0000 </r>
      </set>
      <set comment="kpoint 10">
       <r>   -8.0009    1.0000 </r>
       <r>   -7.9231    1.0000 </r>
       <r>   -7.9231    1.0000 </r>
       <r>   -7.9231    1.0000 </r>
       <r>   -6.6791    1.0000 </r>
       <r>   -6.6791    1.0000 </r>
       <r>   -6.6791    1.0000 </r>
       <r>   -6.5717    1.0000 </r>
       <r>   -1.8295    1.0000 </r>
       <r>   -1.8295    1.0000 </r>
       <r>   -1.8295    1.0000 </r>
       <r>   -1.5448    0.9999 </r>
       <r>   -1.5447    0.9999 </r>
       <r>   -1.5447    0.9999 </r>
       <r>   -1.5447    0.9999 </r>
       <r>   -1.4856    0.9988 </r>
       <r>   -1.4856    0.9988 </r>
       <r>   -1.1925    0.2265 </r>
       <r>   -1.1925    0.2265 </r>
       <r>   -1.1925    0.2265 </r>
       <r>    0.9767    0.0000 </r>
       <r>    0.9772    0.0000 </r>
       <r>    0.9783    0.0000 </r>
       <r>    1.0261    0.0000 </r>
      </set>
     </set>
    </set>
   </array>
  </eigenvalues>
  <separator name="orbital magnetization" >
   <v name="MAGDIPOLOUT">      0.00000000      0.00000000      0.00000000</v>
  </separator>
  <dos>
   <i name="efermi">     -1.21984958 </i>
   <total>
    <array>
     <dimension dim="1">gridpoints</dimension>
     <dimension dim="2">spin</dimension>
     <field>energy</field>
     <field>total</field>
     <field>integrated</field>
     <set>
      <set comment="spin 1">
       <r>    -9.4834     0.0000     0.0000 </r>
       <r>    -9.4451     0.0000     0.0000 </r>
       <r>    -9.4067     0.0000     0.0000 </r>
       <r>    -9.3683     0.0000     0.0000 </r>
       <r>    -9.3300     0.0000     0.0000 </r>
       <r>    -9.2916     0.0000     0.0000 </r>
       <r>    -9.2533     0.0000     0.0000 </r>
       <r>    -9.2149     0.0000     0.0000 </r>
       <r>    -9.1765     0.0000     0.0000 </r>
       <r>    -9.1382     0.0000     0.0000 </r>
       <r>    -9.0998     0.0000     0.0000 </r>
       <r>    -9.0614     0.0000     0.0000 </r>
       <r>    -9.0231     0.0000     0.0000 </r>
       <r>    -8.9847     0.0000     0.0000 </r>
       <r>    -8.9463     0.0000     0.0000 </r>
       <r>    -8.9080     0.0000     0.0000 </r>
       <r>    -8.8696     0.0000     0.0000 </r>
       <r>    -8.8312     0.0000     0.0000 </r>
       <r>    -8.7929     0.0003     0.0000 </r>
       <r>    -8.7545     0.0018     0.0001 </r>
       <r>    -8.7161     0.0057     0.0003 </r>
       <r>    -8.6778     0.0089     0.0006 </r>
       <r>    -8.6394    -0.0060     0.0004 </r>
       <r>    -8.6010    -0.0526    -0.0016 </r>
       <r>    -8.5627    -0.0694    -0.0043 </r>
       <r>    -8.5243     0.1145     0.0001 </r>
       <r>    -8.4859     0.6846     0.0264 </r>
       <r>    -8.4476     1.6468     0.0896 </r>
       <r>    -8.4092     2.6448     0.1910 </r>
       <r>    -8.3709     3.1882     0.3134 </r>
       <r>    -8.3325     3.3430     0.4416 </r>
       <r>    -8.2941     3.8464     0.5892 </r>
       <r>    -8.2558     5.1000     0.7848 </r>
       <r>    -8.2174     6.1994     1.0227 </r>
       <r>    -8.1790     5.8845     1.2484 </r>
       <r>    -8.1407     4.8957     1.4363 </r>
       <r>    -8.1023     5.5159     1.6479 </r>
       <r>    -8.0639     7.8914     1.9506 </r>
       <r>    -8.0256     9.8461     2.3284 </r>
       <r>    -7.9872    10.9172     2.7472 </r>
       <r>    -7.9488    11.9509     3.2057 </r>
       <r>    -7.9105    11.3885     3.6427 </r>
       <r>    -7.8721     8.9187     3.9848 </r>
       <r>    -7.8337     9.3216     4.3425 </r>
       <r>    -7.7954    14.1816     4.8865 </r>
       <r>    -7.7570    16.9400     5.5364 </r>
       <r>    -7.7186    13.3702     6.0494 </r>
       <r>    -7.6803     7.6502     6.3429 </r>
       <r>    -7.6419     4.1986     6.5040 </r>
       <r>    -7.6035     3.2712     6.6295 </r>
       <r>    -7.5652     5.2871     6.8323 </r>
       <r>    -7.5268     9.8497     7.2102 </r>
       <r>    -7.4884    11.9667     7.6693 </r>
       <r>    -7.4501     8.0663     7.9788 </r>
       <r>    -7.4117     2.1182     8.0600 </r>
       <r>    -7.3734    -0.7443     8.0315 </r>
       <r>    -7.3350    -0.9034     7.9968 </r>
       <r>    -7.2966    -0.9386     7.9608 </r>
       <r>    -7.2583    -0.4821     7.9423 </r>
       <r>    -7.2199     3.1199     8.0620 </r>
       <r>    -7.1815     9.1579     8.4134 </r>
       <r>    -7.1432    11.8986     8.8699 </r>
       <r>    -7.1048     8.6239     9.2007 </r>
       <r>    -7.0664     4.1219     9.3588 </r>
       <r>    -7.0281     2.8779     9.4693 </r>
       <r>    -6.9897     3.5829     9.6067 </r>
       <r>    -6.9513     4.4267     9.7765 </r>
       <r>    -6.9130     7.2373    10.0542 </r>
       <r>    -6.8746    12.6793    10.5407 </r>
       <r>    -6.8362    16.0930    11.1581 </r>
       <r>    -6.7979    13.0326    11.6581 </r>
       <r>    -6.7595     6.5820    11.9106 </r>
       <r>    -6.7211     4.1808    12.0710 </r>
       <r>    -6.6828     7.5716    12.3615 </r>
       <r>    -6.6444    10.6375    12.7696 </r>
       <r>    -6.6060     9.1490    13.1206 </r>
       <r>    -6.5677     6.4834    13.3693 </r>
       <r>    -6.5293     6.3503    13.6130 </r>
       <r>    -6.4910     7.4844    13.9001 </r>
       <r>    -6.4526     7.3950    14.1838 </r>
       <r>    -6.4142     5.5489    14.3967 </r>
       <r>    -6.3759     3.1399    14.5172 </r>
       <r>    -6.3375     1.8707    14.5889 </r>
       <r>    -6.2991     2.3587    14.6794 </r>
       <r>    -6.2608     3.7759    14.8243 </r>
       <r>    -6.2224     4.6385    15.0022 </r>
       <r>    -6.1840     4.1892    15.1630 </r>
       <r>    -6.1457     3.2885    15.2891 </r>
       <r>    -6.1073     2.6571    15.3911 </r>
       <r>    -6.0689     2.0435    15.4695 </r>
       <r>    -6.0306     1.7430    15.5363 </r>
       <r>    -5.9922     1.8720    15.6082 </r>
       <r>    -5.9538     1.7031    15.6735 </r>
       <r>    -5.9155     1.4813    15.7303 </r>
       <r>    -5.8771     1.8517    15.8014 </r>
       <r>    -5.8387     1.9955    15.8779 </r>
       <r>    -5.8004     1.2355    15.9253 </r>
       <r>    -5.7620     0.5096    15.9449 </r>
       <r>    -5.7236     0.5037    15.9642 </r>
       <r>    -5.6853     0.6121    15.9877 </r>
       <r>    -5.6469     0.3574    16.0014 </r>
       <r>    -5.6086     0.0400    16.0029 </r>
       <r>    -5.5702    -0.0585    16.0007 </r>
       <r>    -5.5318    -0.0264    15.9997 </r>
       <r>    -5.4935     0.0015    15.9997 </r>
       <r>    -5.4551     0.0048    15.9999 </r>
       <r>    -5.4167     0.0019    16.0000 </r>
       <r>    -5.3784     0.0004    16.0000 </r>
       <r>    -5.3400     0.0001    16.0000 </r>
       <r>    -5.3016     0.0000    16.0000 </r>
       <r>    -5.2633     0.0000    16.0000 </r>
       <r>    -5.2249     0.0000    16.0000 </r>
       <r>    -5.1865     0.0000    16.0000 </r>
       <r>    -5.1482     0.0000    16.0000 </r>
       <r>    -5.1098     0.0000    16.0000 </r>
       <r>    -5.0714     0.0000    16.0000 </r>
       <r>    -5.0331     0.0000    16.0000 </r>
       <r>    -4.9947     0.0000    16.0000 </r>
       <r>    -4.9563     0.0000    16.0000 </r>
       <r>    -4.9180     0.0000    16.0000 </r>
       <r>    -4.8796     0.0000    16.0000 </r>
       <r>    -4.8412     0.0000    16.0000 </r>
       <r>    -4.8029     0.0000    16.0000 </r>
       <r>    -4.7645     0.0000    16.0000 </r>
       <r>    -4.7262     0.0000    16.0000 </r>
       <r>    -4.6878     0.0000    16.0000 </r>
       <r>    -4.6494     0.0000    16.0000 </r>
       <r>    -4.6111     0.0000    16.0000 </r>
       <r>    -4.5727     0.0000    16.0000 </r>
       <r>    -4.5343     0.0000    16.0000 </r>
       <r>    -4.4960     0.0000    16.0000 </r>
       <r>    -4.4576     0.0000    16.0000 </r>
       <r>    -4.4192     0.0000    16.0000 </r>
       <r>    -4.3809     0.0000    16.0000 </r>
       <r>    -4.3425     0.0000    16.0000 </r>
       <r>    -4.3041     0.0000    16.0000 </r>
       <r>    -4.2658     0.0000    16.0000 </r>
       <r>    -4.2274     0.0000    16.0000 </r>
       <r>    -4.1890     0.0000    16.0000 </r>
       <r>    -4.1507     0.0000    16.0000 </r>
       <r>    -4.1123     0.0000    16.0000 </r>
       <r>    -4.0739     0.0000    16.0000 </r>
       <r>    -4.0356     0.0000    16.0000 </r>
       <r>    -3.9972     0.0000    16.0000 </r>
       <r>    -3.9588     0.0000    16.0000 </r>
       <r>    -3.9205     0.0000    16.0000 </r>
       <r>    -3.8821     0.0000    16.0000 </r>
       <r>    -3.8437     0.0000    16.0000 </r>
       <r>    -3.8054     0.0000    16.0000 </r>
       <r>    -3.7670     0.0000    16.0000 </r>
       <r>    -3.7287     0.0000    16.0000 </r>
       <r>    -3.6903     0.0000    16.0000 </r>
       <r>    -3.6519     0.0000    16.0000 </r>
       <r>    -3.6136     0.0000    16.0000 </r>
       <r>    -3.5752     0.0000    16.0000 </r>
       <r>    -3.5368     0.0000    16.0000 </r>
       <r>    -3.4985     0.0000    16.0000 </r>
       <r>    -3.4601     0.0000    16.0000 </r>
       <r>    -3.4217     0.0000    16.0000 </r>
       <r>    -3.3834     0.0000    16.0000 </r>
       <r>    -3.3450     0.0000    16.0000 </r>
       <r>    -3.3066     0.0000    16.0000 </r>
       <r>    -3.2683     0.0000    16.0000 </r>
       <r>    -3.2299     0.0000    16.0000 </r>
       <r>    -3.1915     0.0000    16.0000 </r>
       <r>    -3.1532     0.0000    16.0000 </r>
       <r>    -3.1148     0.0000    16.0000 </r>
       <r>    -3.0764     0.0000    16.0000 </r>
       <r>    -3.0381     0.0000    16.0000 </r>
       <r>    -2.9997     0.0000    16.0000 </r>
       <r>    -2.9613     0.0000    16.0000 </r>
       <r>    -2.9230     0.0000    16.0000 </r>
       <r>    -2.8846     0.0000    16.0000 </r>
       <r>    -2.8463     0.0000    16.0000 </r>
       <r>    -2.8079     0.0000    16.0000 </r>
       <r>    -2.7695     0.0000    16.0000 </r>
       <r>    -2.7312     0.0000    16.0000 </r>
       <r>    -2.6928     0.0000    16.0000 </r>
       <r>    -2.6544     0.0000    16.0000 </r>
       <r>    -2.6161     0.0000    16.0000 </r>
       <r>    -2.5777     0.0001    16.0000 </r>
       <r>    -2.5393     0.0013    16.0001 </r>
       <r>    -2.5010     0.0085    16.0004 </r>
       <r>    -2.4626     0.0354    16.0017 </r>
       <r>    -2.4242     0.0823    16.0049 </r>
       <r>    -2.3859     0.0344    16.0062 </r>
       <r>    -2.3475    -0.3653    15.9922 </r>
       <r>    -2.3091    -0.9035    15.9575 </r>
       <r>    -2.2708     0.0819    15.9607 </r>
       <r>    -2.2324     4.7242    16.1419 </r>
       <r>    -2.1940    12.3707    16.6165 </r>
       <r>    -2.1557    19.0548    17.3476 </r>
       <r>    -2.1173    21.5408    18.1740 </r>
       <r>    -2.0789    19.9302    18.9386 </r>
       <r>    -2.0406    16.7391    19.5808 </r>
       <r>    -2.0022    15.6946    20.1829 </r>
       <r>    -1.9639    18.5207    20.8935 </r>
       <r>    -1.9255    21.8311    21.7311 </r>
       <r>    -1.8871    22.0253    22.5761 </r>
       <r>    -1.8488    20.9144    23.3785 </r>
       <r>    -1.8104    20.9512    24.1823 </r>
       <r>    -1.7720    20.6507    24.9745 </r>
       <r>    -1.7337    18.9322    25.7009 </r>
       <r>    -1.6953    17.4347    26.3697 </r>
       <r>    -1.6569    17.5805    27.0442 </r>
       <r>    -1.6186    18.9422    27.7709 </r>
       <r>    -1.5802    19.3068    28.5117 </r>
       <r>    -1.5418    17.1295    29.1688 </r>
       <r>    -1.5035    14.2877    29.7170 </r>
       <r>    -1.4651    13.0192    30.2165 </r>
       <r>    -1.4267    11.8592    30.6715 </r>
       <r>    -1.3884     8.9737    31.0157 </r>
       <r>    -1.3500     6.3017    31.2575 </r>
       <r>    -1.3116     5.7273    31.4772 </r>
       <r>    -1.2733     5.7913    31.6994 </r>
       <r>    -1.2349     5.5728    31.9132 </r>
       <r>    -1.1965     6.0436    32.1451 </r>
       <r>    -1.1582     7.0517    32.4156 </r>
       <r>    -1.1198     7.3508    32.6976 </r>
       <r>    -1.0815     6.1233    32.9326 </r>
       <r>    -1.0431     3.7593    33.0768 </r>
       <r>    -1.0047     2.6941    33.1801 </r>
       <r>    -0.9664     5.3903    33.3869 </r>
       <r>    -0.9280    10.2370    33.7797 </r>
       <r>    -0.8896    12.1627    34.2463 </r>
       <r>    -0.8513     9.2048    34.5995 </r>
       <r>    -0.8129     5.1430    34.7968 </r>
       <r>    -0.7745     3.5808    34.9342 </r>
       <r>    -0.7362     4.5487    35.1087 </r>
       <r>    -0.6978     7.4395    35.3941 </r>
       <r>    -0.6594    11.1810    35.8230 </r>
       <r>    -0.6211    12.7563    36.3124 </r>
       <r>    -0.5827    10.3425    36.7092 </r>
       <r>    -0.5443     5.8282    36.9328 </r>
       <r>    -0.5060     2.8475    37.0421 </r>
       <r>    -0.4676     4.7053    37.2226 </r>
       <r>    -0.4292    11.1176    37.6491 </r>
       <r>    -0.3909    15.7731    38.2543 </r>
       <r>    -0.3525    13.4111    38.7688 </r>
       <r>    -0.3141     7.5553    39.0587 </r>
       <r>    -0.2758     4.3837    39.2268 </r>
       <r>    -0.2374     4.1991    39.3879 </r>
       <r>    -0.1990     4.9259    39.5769 </r>
       <r>    -0.1607     6.5667    39.8288 </r>
       <r>    -0.1223     7.8601    40.1304 </r>
       <r>    -0.0840     6.2542    40.3703 </r>
       <r>    -0.0456     2.9360    40.4830 </r>
       <r>    -0.0072     1.3431    40.5345 </r>
       <r>     0.0311     2.1249    40.6160 </r>
       <r>     0.0695     3.9522    40.7677 </r>
       <r>     0.1079     6.0746    41.0007 </r>
       <r>     0.1462     7.6084    41.2926 </r>
       <r>     0.1846     6.9633    41.5598 </r>
       <r>     0.2230     4.5829    41.7356 </r>
       <r>     0.2613     4.1253    41.8939 </r>
       <r>     0.2997     6.8260    42.1557 </r>
       <r>     0.3381     8.6082    42.4860 </r>
       <r>     0.3764     7.4354    42.7713 </r>
       <r>     0.4148     7.2731    43.0503 </r>
       <r>     0.4532    10.2824    43.4448 </r>
       <r>     0.4915    12.1191    43.9097 </r>
       <r>     0.5299     9.4694    44.2730 </r>
       <r>     0.5683     5.9422    44.5010 </r>
       <r>     0.6066     6.5404    44.7519 </r>
       <r>     0.6450    10.6660    45.1611 </r>
       <r>     0.6834    13.1502    45.6656 </r>
       <r>     0.7217    10.9406    46.0854 </r>
       <r>     0.7601     7.3515    46.3674 </r>
       <r>     0.7984     7.0266    46.6370 </r>
       <r>     0.8368     8.4812    46.9624 </r>
       <r>     0.8752     7.6130    47.2545 </r>
       <r>     0.9135     5.2601    47.4563 </r>
       <r>     0.9519     4.5276    47.6300 </r>
       <r>     0.9903     4.7853    47.8135 </r>
       <r>     1.0286     3.6719    47.9544 </r>
       <r>     1.0670     1.4819    48.0113 </r>
       <r>     1.1054     0.0244    48.0122 </r>
       <r>     1.1437    -0.2626    48.0021 </r>
       <r>     1.1821    -0.0998    47.9983 </r>
       <r>     1.2205     0.0096    47.9987 </r>
       <r>     1.2588     0.0219    47.9995 </r>
       <r>     1.2972     0.0097    47.9999 </r>
       <r>     1.3356     0.0025    48.0000 </r>
       <r>     1.3739     0.0004    48.0000 </r>
       <r>     1.4123     0.0001    48.0000 </r>
       <r>     1.4507     0.0000    48.0000 </r>
       <r>     1.4890     0.0000    48.0000 </r>
       <r>     1.5274     0.0000    48.0000 </r>
       <r>     1.5658     0.0000    48.0000 </r>
       <r>     1.6041     0.0000    48.0000 </r>
       <r>     1.6425     0.0000    48.0000 </r>
       <r>     1.6808     0.0000    48.0000 </r>
       <r>     1.7192     0.0000    48.0000 </r>
       <r>     1.7576     0.0000    48.0000 </r>
       <r>     1.7959     0.0000    48.0000 </r>
       <r>     1.8343     0.0000    48.0000 </r>
       <r>     1.8727     0.0000    48.0000 </r>
       <r>     1.9110     0.0000    48.0000 </r>
       <r>     1.9494     0.0000    48.0000 </r>
       <r>     1.9878     0.0000    48.0000 </r>
       <r>     2.0261     0.0000    48.0000 </r>
      </set>
     </set>
    </array>
   </total>
  </dos>
 </calculation>
 <structure name="finalpos" >
  <crystal>
   <varray name="basis" >
    <v>       7.89693799       0.00000000       0.00000000 </v>
    <v>       0.00000000       7.89693799       0.00000000 </v>
    <v>       0.00000000       0.00000000       7.89693799 </v>
   </varray>
   <i name="volume">    492.46592114 </i>
   <varray name="rec_basis" >
    <v>       0.12663136       0.00000000       0.00000000 </v>
    <v>       0.00000000       0.12663136       0.00000000 </v>
    <v>       0.00000000       0.00000000       0.12663136 </v>
   </varray>
  </crystal>
  <varray name="positions" >
   <v>       0.00000000       0.00000000       0.00000000 </v>
   <v>       0.25000000       0.25000000       0.25000000 </v>
   <v>       0.50000000       0.50000000       0.00000000 </v>
   <v>       0.75000000       0.75000000       0.25000000 </v>
   <v>       0.50000000       0.00000000       0.50000000 </v>
   <v>       0.75000000       0.25000000       0.75000000 </v>
   <v>       0.00000000       0.50000000       0.50000000 </v>
   <v>       0.25000000       0.75000000       0.75000000 </v>
  </varray>
 </structure>
</modeling>
