<?xml version="1.0" encoding="ISO-8859-1"?>
<modeling>
 <generator>
  <i name="program" type="string">vasp </i>
  <i name="version" type="string">5.4.1  </i>
  <i name="subversion" type="string">24Jun15 (build Jul  8 2015 13:29:37) complex                          parallel </i>
  <i name="platform" type="string">FX10FRT </i>
  <i name="date" type="string">2016 02 29 </i>
  <i name="time" type="string">21:51:51 </i>
 </generator>
 <incar>
  <i type="string" name="PREC">accurate</i>
  <i type="string" name="ALGO"> Normal</i>
  <i type="int" name="ISPIN">     1</i>
  <i type="int" name="IBRION">    -1</i>
  <i name="EDIFF">      0.00010000</i>
  <i type="int" name="NSW">     0</i>
  <i type="int" name="ISIF">     2</i>
  <i name="ENCUT">    400.00000000</i>
  <i type="int" name="ISMEAR">     2</i>
  <i name="SIGMA">      0.01000000</i>
  <i type="int" name="NWRITE">     1</i>
  <v type="int" name="KPOINT_BSE">    -1     0     0     0</v>
 </incar>
 <kpoints>
  <generation param="Monkhorst-Pack">
   <v type="int" name="divisions">       8        8        8 </v>
   <v name="usershift">      0.00000000       0.00000000       0.00000000 </v>
   <v name="genvec1">      0.12500000       0.00000000       0.00000000 </v>
   <v name="genvec2">      0.00000000       0.12500000       0.00000000 </v>
   <v name="genvec3">      0.00000000       0.00000000       0.12500000 </v>
   <v name="shift">      0.50000000       0.50000000       0.50000000 </v>
  </generation>
  <varray name="kpointlist" >
   <v>       0.06250000       0.06250000       0.06250000 </v>
   <v>       0.18750000       0.06250000       0.06250000 </v>
   <v>       0.31250000       0.06250000       0.06250000 </v>
   <v>       0.43750000       0.06250000       0.06250000 </v>
   <v>      -0.43750000       0.06250000       0.06250000 </v>
   <v>      -0.31250000       0.06250000       0.06250000 </v>
   <v>      -0.18750000       0.06250000       0.06250000 </v>
   <v>      -0.06250000       0.06250000       0.06250000 </v>
   <v>       0.06250000       0.18750000       0.06250000 </v>
   <v>       0.18750000       0.18750000       0.06250000 </v>
   <v>       0.31250000       0.18750000       0.06250000 </v>
   <v>       0.43750000       0.18750000       0.06250000 </v>
   <v>      -0.43750000       0.18750000       0.06250000 </v>
   <v>      -0.31250000       0.18750000       0.06250000 </v>
   <v>      -0.18750000       0.18750000       0.06250000 </v>
   <v>      -0.06250000       0.18750000       0.06250000 </v>
   <v>       0.06250000       0.31250000       0.06250000 </v>
   <v>       0.18750000       0.31250000       0.06250000 </v>
   <v>       0.31250000       0.31250000       0.06250000 </v>
   <v>       0.43750000       0.31250000       0.06250000 </v>
   <v>      -0.43750000       0.31250000       0.06250000 </v>
   <v>      -0.31250000       0.31250000       0.06250000 </v>
   <v>      -0.18750000       0.31250000       0.06250000 </v>
   <v>      -0.06250000       0.31250000       0.06250000 </v>
   <v>       0.06250000       0.43750000       0.06250000 </v>
   <v>       0.18750000       0.43750000       0.06250000 </v>
   <v>       0.31250000       0.43750000       0.06250000 </v>
   <v>       0.43750000       0.43750000       0.06250000 </v>
   <v>      -0.43750000       0.43750000       0.06250000 </v>
   <v>      -0.31250000       0.43750000       0.06250000 </v>
   <v>      -0.18750000       0.43750000       0.06250000 </v>
   <v>      -0.06250000       0.43750000       0.06250000 </v>
   <v>       0.06250000      -0.43750000       0.06250000 </v>
   <v>       0.18750000      -0.43750000       0.06250000 </v>
   <v>       0.31250000      -0.43750000       0.06250000 </v>
   <v>       0.43750000      -0.43750000       0.06250000 </v>
   <v>      -0.43750000      -0.43750000       0.06250000 </v>
   <v>      -0.31250000      -0.43750000       0.06250000 </v>
   <v>      -0.18750000      -0.43750000       0.06250000 </v>
   <v>      -0.06250000      -0.43750000       0.06250000 </v>
   <v>       0.06250000      -0.31250000       0.06250000 </v>
   <v>       0.18750000      -0.31250000       0.06250000 </v>
   <v>       0.31250000      -0.31250000       0.06250000 </v>
   <v>       0.43750000      -0.31250000       0.06250000 </v>
   <v>      -0.43750000      -0.31250000       0.06250000 </v>
   <v>      -0.31250000      -0.31250000       0.06250000 </v>
   <v>      -0.18750000      -0.31250000       0.06250000 </v>
   <v>      -0.06250000      -0.31250000       0.06250000 </v>
   <v>       0.06250000      -0.18750000       0.06250000 </v>
   <v>       0.18750000      -0.18750000       0.06250000 </v>
   <v>       0.31250000      -0.18750000       0.06250000 </v>
   <v>       0.43750000      -0.18750000       0.06250000 </v>
   <v>      -0.43750000      -0.18750000       0.06250000 </v>
   <v>      -0.31250000      -0.18750000       0.06250000 </v>
   <v>      -0.18750000      -0.18750000       0.06250000 </v>
   <v>      -0.06250000      -0.18750000       0.06250000 </v>
   <v>       0.06250000      -0.06250000       0.06250000 </v>
   <v>       0.18750000      -0.06250000       0.06250000 </v>
   <v>       0.31250000      -0.06250000       0.06250000 </v>
   <v>       0.43750000      -0.06250000       0.06250000 </v>
   <v>      -0.43750000      -0.06250000       0.06250000 </v>
   <v>      -0.31250000      -0.06250000       0.06250000 </v>
   <v>      -0.18750000      -0.06250000       0.06250000 </v>
   <v>      -0.06250000      -0.06250000       0.06250000 </v>
   <v>       0.06250000       0.06250000       0.18750000 </v>
   <v>       0.18750000       0.06250000       0.18750000 </v>
   <v>       0.31250000       0.06250000       0.18750000 </v>
   <v>       0.43750000       0.06250000       0.18750000 </v>
   <v>      -0.43750000       0.06250000       0.18750000 </v>
   <v>      -0.31250000       0.06250000       0.18750000 </v>
   <v>      -0.18750000       0.06250000       0.18750000 </v>
   <v>      -0.06250000       0.06250000       0.18750000 </v>
   <v>       0.06250000       0.18750000       0.18750000 </v>
   <v>       0.18750000       0.18750000       0.18750000 </v>
   <v>       0.31250000       0.18750000       0.18750000 </v>
   <v>       0.43750000       0.18750000       0.18750000 </v>
   <v>      -0.43750000       0.18750000       0.18750000 </v>
   <v>      -0.31250000       0.18750000       0.18750000 </v>
   <v>      -0.18750000       0.18750000       0.18750000 </v>
   <v>      -0.06250000       0.18750000       0.18750000 </v>
   <v>       0.06250000       0.31250000       0.18750000 </v>
   <v>       0.18750000       0.31250000       0.18750000 </v>
   <v>       0.31250000       0.31250000       0.18750000 </v>
   <v>       0.43750000       0.31250000       0.18750000 </v>
   <v>      -0.43750000       0.31250000       0.18750000 </v>
   <v>      -0.31250000       0.31250000       0.18750000 </v>
   <v>      -0.18750000       0.31250000       0.18750000 </v>
   <v>      -0.06250000       0.31250000       0.18750000 </v>
   <v>       0.06250000       0.43750000       0.18750000 </v>
   <v>       0.18750000       0.43750000       0.18750000 </v>
   <v>       0.31250000       0.43750000       0.18750000 </v>
   <v>       0.43750000       0.43750000       0.18750000 </v>
   <v>      -0.43750000       0.43750000       0.18750000 </v>
   <v>      -0.31250000       0.43750000       0.18750000 </v>
   <v>      -0.18750000       0.43750000       0.18750000 </v>
   <v>      -0.06250000       0.43750000       0.18750000 </v>
   <v>       0.06250000      -0.43750000       0.18750000 </v>
   <v>       0.18750000      -0.43750000       0.18750000 </v>
   <v>       0.31250000      -0.43750000       0.18750000 </v>
   <v>       0.43750000      -0.43750000       0.18750000 </v>
   <v>      -0.43750000      -0.43750000       0.18750000 </v>
   <v>      -0.31250000      -0.43750000       0.18750000 </v>
   <v>      -0.18750000      -0.43750000       0.18750000 </v>
   <v>      -0.06250000      -0.43750000       0.18750000 </v>
   <v>       0.06250000      -0.31250000       0.18750000 </v>
   <v>       0.18750000      -0.31250000       0.18750000 </v>
   <v>       0.31250000      -0.31250000       0.18750000 </v>
   <v>       0.43750000      -0.31250000       0.18750000 </v>
   <v>      -0.43750000      -0.31250000       0.18750000 </v>
   <v>      -0.31250000      -0.31250000       0.18750000 </v>
   <v>      -0.18750000      -0.31250000       0.18750000 </v>
   <v>      -0.06250000      -0.31250000       0.18750000 </v>
   <v>       0.06250000      -0.18750000       0.18750000 </v>
   <v>       0.18750000      -0.18750000       0.18750000 </v>
   <v>       0.31250000      -0.18750000       0.18750000 </v>
   <v>       0.43750000      -0.18750000       0.18750000 </v>
   <v>      -0.43750000      -0.18750000       0.18750000 </v>
   <v>      -0.31250000      -0.18750000       0.18750000 </v>
   <v>      -0.18750000      -0.18750000       0.18750000 </v>
   <v>      -0.06250000      -0.18750000       0.18750000 </v>
   <v>       0.06250000      -0.06250000       0.18750000 </v>
   <v>       0.18750000      -0.06250000       0.18750000 </v>
   <v>       0.31250000      -0.06250000       0.18750000 </v>
   <v>       0.43750000      -0.06250000       0.18750000 </v>
   <v>      -0.43750000      -0.06250000       0.18750000 </v>
   <v>      -0.31250000      -0.06250000       0.18750000 </v>
   <v>      -0.18750000      -0.06250000       0.18750000 </v>
   <v>      -0.06250000      -0.06250000       0.18750000 </v>
   <v>       0.06250000       0.06250000       0.31250000 </v>
   <v>       0.18750000       0.06250000       0.31250000 </v>
   <v>       0.31250000       0.06250000       0.31250000 </v>
   <v>       0.43750000       0.06250000       0.31250000 </v>
   <v>      -0.43750000       0.06250000       0.31250000 </v>
   <v>      -0.31250000       0.06250000       0.31250000 </v>
   <v>      -0.18750000       0.06250000       0.31250000 </v>
   <v>      -0.06250000       0.06250000       0.31250000 </v>
   <v>       0.06250000       0.18750000       0.31250000 </v>
   <v>       0.18750000       0.18750000       0.31250000 </v>
   <v>       0.31250000       0.18750000       0.31250000 </v>
   <v>       0.43750000       0.18750000       0.31250000 </v>
   <v>      -0.43750000       0.18750000       0.31250000 </v>
   <v>      -0.31250000       0.18750000       0.31250000 </v>
   <v>      -0.18750000       0.18750000       0.31250000 </v>
   <v>      -0.06250000       0.18750000       0.31250000 </v>
   <v>       0.06250000       0.31250000       0.31250000 </v>
   <v>       0.18750000       0.31250000       0.31250000 </v>
   <v>       0.31250000       0.31250000       0.31250000 </v>
   <v>       0.43750000       0.31250000       0.31250000 </v>
   <v>      -0.43750000       0.31250000       0.31250000 </v>
   <v>      -0.31250000       0.31250000       0.31250000 </v>
   <v>      -0.18750000       0.31250000       0.31250000 </v>
   <v>      -0.06250000       0.31250000       0.31250000 </v>
   <v>       0.06250000       0.43750000       0.31250000 </v>
   <v>       0.18750000       0.43750000       0.31250000 </v>
   <v>       0.31250000       0.43750000       0.31250000 </v>
   <v>       0.43750000       0.43750000       0.31250000 </v>
   <v>      -0.43750000       0.43750000       0.31250000 </v>
   <v>      -0.31250000       0.43750000       0.31250000 </v>
   <v>      -0.18750000       0.43750000       0.31250000 </v>
   <v>      -0.06250000       0.43750000       0.31250000 </v>
   <v>       0.06250000      -0.43750000       0.31250000 </v>
   <v>       0.18750000      -0.43750000       0.31250000 </v>
   <v>       0.31250000      -0.43750000       0.31250000 </v>
   <v>       0.43750000      -0.43750000       0.31250000 </v>
   <v>      -0.43750000      -0.43750000       0.31250000 </v>
   <v>      -0.31250000      -0.43750000       0.31250000 </v>
   <v>      -0.18750000      -0.43750000       0.31250000 </v>
   <v>      -0.06250000      -0.43750000       0.31250000 </v>
   <v>       0.06250000      -0.31250000       0.31250000 </v>
   <v>       0.18750000      -0.31250000       0.31250000 </v>
   <v>       0.31250000      -0.31250000       0.31250000 </v>
   <v>       0.43750000      -0.31250000       0.31250000 </v>
   <v>      -0.43750000      -0.31250000       0.31250000 </v>
   <v>      -0.31250000      -0.31250000       0.31250000 </v>
   <v>      -0.18750000      -0.31250000       0.31250000 </v>
   <v>      -0.06250000      -0.31250000       0.31250000 </v>
   <v>       0.06250000      -0.18750000       0.31250000 </v>
   <v>       0.18750000      -0.18750000       0.31250000 </v>
   <v>       0.31250000      -0.18750000       0.31250000 </v>
   <v>       0.43750000      -0.18750000       0.31250000 </v>
   <v>      -0.43750000      -0.18750000       0.31250000 </v>
   <v>      -0.31250000      -0.18750000       0.31250000 </v>
   <v>      -0.18750000      -0.18750000       0.31250000 </v>
   <v>      -0.06250000      -0.18750000       0.31250000 </v>
   <v>       0.06250000      -0.06250000       0.31250000 </v>
   <v>       0.18750000      -0.06250000       0.31250000 </v>
   <v>       0.31250000      -0.06250000       0.31250000 </v>
   <v>       0.43750000      -0.06250000       0.31250000 </v>
   <v>      -0.43750000      -0.06250000       0.31250000 </v>
   <v>      -0.31250000      -0.06250000       0.31250000 </v>
   <v>      -0.18750000      -0.06250000       0.31250000 </v>
   <v>      -0.06250000      -0.06250000       0.31250000 </v>
   <v>       0.06250000       0.06250000       0.43750000 </v>
   <v>       0.18750000       0.06250000       0.43750000 </v>
   <v>       0.31250000       0.06250000       0.43750000 </v>
   <v>       0.43750000       0.06250000       0.43750000 </v>
   <v>      -0.43750000       0.06250000       0.43750000 </v>
   <v>      -0.31250000       0.06250000       0.43750000 </v>
   <v>      -0.18750000       0.06250000       0.43750000 </v>
   <v>      -0.06250000       0.06250000       0.43750000 </v>
   <v>       0.06250000       0.18750000       0.43750000 </v>
   <v>       0.18750000       0.18750000       0.43750000 </v>
   <v>       0.31250000       0.18750000       0.43750000 </v>
   <v>       0.43750000       0.18750000       0.43750000 </v>
   <v>      -0.43750000       0.18750000       0.43750000 </v>
   <v>      -0.31250000       0.18750000       0.43750000 </v>
   <v>      -0.18750000       0.18750000       0.43750000 </v>
   <v>      -0.06250000       0.18750000       0.43750000 </v>
   <v>       0.06250000       0.31250000       0.43750000 </v>
   <v>       0.18750000       0.31250000       0.43750000 </v>
   <v>       0.31250000       0.31250000       0.43750000 </v>
   <v>       0.43750000       0.31250000       0.43750000 </v>
   <v>      -0.43750000       0.31250000       0.43750000 </v>
   <v>      -0.31250000       0.31250000       0.43750000 </v>
   <v>      -0.18750000       0.31250000       0.43750000 </v>
   <v>      -0.06250000       0.31250000       0.43750000 </v>
   <v>       0.06250000       0.43750000       0.43750000 </v>
   <v>       0.18750000       0.43750000       0.43750000 </v>
   <v>       0.31250000       0.43750000       0.43750000 </v>
   <v>       0.43750000       0.43750000       0.43750000 </v>
   <v>      -0.43750000       0.43750000       0.43750000 </v>
   <v>      -0.31250000       0.43750000       0.43750000 </v>
   <v>      -0.18750000       0.43750000       0.43750000 </v>
   <v>      -0.06250000       0.43750000       0.43750000 </v>
   <v>       0.06250000      -0.43750000       0.43750000 </v>
   <v>       0.18750000      -0.43750000       0.43750000 </v>
   <v>       0.31250000      -0.43750000       0.43750000 </v>
   <v>       0.43750000      -0.43750000       0.43750000 </v>
   <v>      -0.43750000      -0.43750000       0.43750000 </v>
   <v>      -0.31250000      -0.43750000       0.43750000 </v>
   <v>      -0.18750000      -0.43750000       0.43750000 </v>
   <v>      -0.06250000      -0.43750000       0.43750000 </v>
   <v>       0.06250000      -0.31250000       0.43750000 </v>
   <v>       0.18750000      -0.31250000       0.43750000 </v>
   <v>       0.31250000      -0.31250000       0.43750000 </v>
   <v>       0.43750000      -0.31250000       0.43750000 </v>
   <v>      -0.43750000      -0.31250000       0.43750000 </v>
   <v>      -0.31250000      -0.31250000       0.43750000 </v>
   <v>      -0.18750000      -0.31250000       0.43750000 </v>
   <v>      -0.06250000      -0.31250000       0.43750000 </v>
   <v>       0.06250000      -0.18750000       0.43750000 </v>
   <v>       0.18750000      -0.18750000       0.43750000 </v>
   <v>       0.31250000      -0.18750000       0.43750000 </v>
   <v>       0.43750000      -0.18750000       0.43750000 </v>
   <v>      -0.43750000      -0.18750000       0.43750000 </v>
   <v>      -0.31250000      -0.18750000       0.43750000 </v>
   <v>      -0.18750000      -0.18750000       0.43750000 </v>
   <v>      -0.06250000      -0.18750000       0.43750000 </v>
   <v>       0.06250000      -0.06250000       0.43750000 </v>
   <v>       0.18750000      -0.06250000       0.43750000 </v>
   <v>       0.31250000      -0.06250000       0.43750000 </v>
   <v>       0.43750000      -0.06250000       0.43750000 </v>
   <v>      -0.43750000      -0.06250000       0.43750000 </v>
   <v>      -0.31250000      -0.06250000       0.43750000 </v>
   <v>      -0.18750000      -0.06250000       0.43750000 </v>
   <v>      -0.06250000      -0.06250000       0.43750000 </v>
  </varray>
  <varray name="weights" >
   <v>       0.00390625 </v>
   <v>       0.00390625 </v>
   <v>       0.00390625 </v>
   <v>       0.00390625 </v>
   <v>       0.00390625 </v>
   <v>       0.00390625 </v>
   <v>       0.00390625 </v>
   <v>       0.00390625 </v>
   <v>       0.00390625 </v>
   <v>       0.00390625 </v>
   <v>       0.00390625 </v>
   <v>       0.00390625 </v>
   <v>       0.00390625 </v>
   <v>       0.00390625 </v>
   <v>       0.00390625 </v>
   <v>       0.00390625 </v>
   <v>       0.00390625 </v>
   <v>       0.00390625 </v>
   <v>       0.00390625 </v>
   <v>       0.00390625 </v>
   <v>       0.00390625 </v>
   <v>       0.00390625 </v>
   <v>       0.00390625 </v>
   <v>       0.00390625 </v>
   <v>       0.00390625 </v>
   <v>       0.00390625 </v>
   <v>       0.00390625 </v>
   <v>       0.00390625 </v>
   <v>       0.00390625 </v>
   <v>       0.00390625 </v>
   <v>       0.00390625 </v>
   <v>       0.00390625 </v>
   <v>       0.00390625 </v>
   <v>       0.00390625 </v>
   <v>       0.00390625 </v>
   <v>       0.00390625 </v>
   <v>       0.00390625 </v>
   <v>       0.00390625 </v>
   <v>       0.00390625 </v>
   <v>       0.00390625 </v>
   <v>       0.00390625 </v>
   <v>       0.00390625 </v>
   <v>       0.00390625 </v>
   <v>       0.00390625 </v>
   <v>       0.00390625 </v>
   <v>       0.00390625 </v>
   <v>       0.00390625 </v>
   <v>       0.00390625 </v>
   <v>       0.00390625 </v>
   <v>       0.00390625 </v>
   <v>       0.00390625 </v>
   <v>       0.00390625 </v>
   <v>       0.00390625 </v>
   <v>       0.00390625 </v>
   <v>       0.00390625 </v>
   <v>       0.00390625 </v>
   <v>       0.00390625 </v>
   <v>       0.00390625 </v>
   <v>       0.00390625 </v>
   <v>       0.00390625 </v>
   <v>       0.00390625 </v>
   <v>       0.00390625 </v>
   <v>       0.00390625 </v>
   <v>       0.00390625 </v>
   <v>       0.00390625 </v>
   <v>       0.00390625 </v>
   <v>       0.00390625 </v>
   <v>       0.00390625 </v>
   <v>       0.00390625 </v>
   <v>       0.00390625 </v>
   <v>       0.00390625 </v>
   <v>       0.00390625 </v>
   <v>       0.00390625 </v>
   <v>       0.00390625 </v>
   <v>       0.00390625 </v>
   <v>       0.00390625 </v>
   <v>       0.00390625 </v>
   <v>       0.00390625 </v>
   <v>       0.00390625 </v>
   <v>       0.00390625 </v>
   <v>       0.00390625 </v>
   <v>       0.00390625 </v>
   <v>       0.00390625 </v>
   <v>       0.00390625 </v>
   <v>       0.00390625 </v>
   <v>       0.00390625 </v>
   <v>       0.00390625 </v>
   <v>       0.00390625 </v>
   <v>       0.00390625 </v>
   <v>       0.00390625 </v>
   <v>       0.00390625 </v>
   <v>       0.00390625 </v>
   <v>       0.00390625 </v>
   <v>       0.00390625 </v>
   <v>       0.00390625 </v>
   <v>       0.00390625 </v>
   <v>       0.00390625 </v>
   <v>       0.00390625 </v>
   <v>       0.00390625 </v>
   <v>       0.00390625 </v>
   <v>       0.00390625 </v>
   <v>       0.00390625 </v>
   <v>       0.00390625 </v>
   <v>       0.00390625 </v>
   <v>       0.00390625 </v>
   <v>       0.00390625 </v>
   <v>       0.00390625 </v>
   <v>       0.00390625 </v>
   <v>       0.00390625 </v>
   <v>       0.00390625 </v>
   <v>       0.00390625 </v>
   <v>       0.00390625 </v>
   <v>       0.00390625 </v>
   <v>       0.00390625 </v>
   <v>       0.00390625 </v>
   <v>       0.00390625 </v>
   <v>       0.00390625 </v>
   <v>       0.00390625 </v>
   <v>       0.00390625 </v>
   <v>       0.00390625 </v>
   <v>       0.00390625 </v>
   <v>       0.00390625 </v>
   <v>       0.00390625 </v>
   <v>       0.00390625 </v>
   <v>       0.00390625 </v>
   <v>       0.00390625 </v>
   <v>       0.00390625 </v>
   <v>       0.00390625 </v>
   <v>       0.00390625 </v>
   <v>       0.00390625 </v>
   <v>       0.00390625 </v>
   <v>       0.00390625 </v>
   <v>       0.00390625 </v>
   <v>       0.00390625 </v>
   <v>       0.00390625 </v>
   <v>       0.00390625 </v>
   <v>       0.00390625 </v>
   <v>       0.00390625 </v>
   <v>       0.00390625 </v>
   <v>       0.00390625 </v>
   <v>       0.00390625 </v>
   <v>       0.00390625 </v>
   <v>       0.00390625 </v>
   <v>       0.00390625 </v>
   <v>       0.00390625 </v>
   <v>       0.00390625 </v>
   <v>       0.00390625 </v>
   <v>       0.00390625 </v>
   <v>       0.00390625 </v>
   <v>       0.00390625 </v>
   <v>       0.00390625 </v>
   <v>       0.00390625 </v>
   <v>       0.00390625 </v>
   <v>       0.00390625 </v>
   <v>       0.00390625 </v>
   <v>       0.00390625 </v>
   <v>       0.00390625 </v>
   <v>       0.00390625 </v>
   <v>       0.00390625 </v>
   <v>       0.00390625 </v>
   <v>       0.00390625 </v>
   <v>       0.00390625 </v>
   <v>       0.00390625 </v>
   <v>       0.00390625 </v>
   <v>       0.00390625 </v>
   <v>       0.00390625 </v>
   <v>       0.00390625 </v>
   <v>       0.00390625 </v>
   <v>       0.00390625 </v>
   <v>       0.00390625 </v>
   <v>       0.00390625 </v>
   <v>       0.00390625 </v>
   <v>       0.00390625 </v>
   <v>       0.00390625 </v>
   <v>       0.00390625 </v>
   <v>       0.00390625 </v>
   <v>       0.00390625 </v>
   <v>       0.00390625 </v>
   <v>       0.00390625 </v>
   <v>       0.00390625 </v>
   <v>       0.00390625 </v>
   <v>       0.00390625 </v>
   <v>       0.00390625 </v>
   <v>       0.00390625 </v>
   <v>       0.00390625 </v>
   <v>       0.00390625 </v>
   <v>       0.00390625 </v>
   <v>       0.00390625 </v>
   <v>       0.00390625 </v>
   <v>       0.00390625 </v>
   <v>       0.00390625 </v>
   <v>       0.00390625 </v>
   <v>       0.00390625 </v>
   <v>       0.00390625 </v>
   <v>       0.00390625 </v>
   <v>       0.00390625 </v>
   <v>       0.00390625 </v>
   <v>       0.00390625 </v>
   <v>       0.00390625 </v>
   <v>       0.00390625 </v>
   <v>       0.00390625 </v>
   <v>       0.00390625 </v>
   <v>       0.00390625 </v>
   <v>       0.00390625 </v>
   <v>       0.00390625 </v>
   <v>       0.00390625 </v>
   <v>       0.00390625 </v>
   <v>       0.00390625 </v>
   <v>       0.00390625 </v>
   <v>       0.00390625 </v>
   <v>       0.00390625 </v>
   <v>       0.00390625 </v>
   <v>       0.00390625 </v>
   <v>       0.00390625 </v>
   <v>       0.00390625 </v>
   <v>       0.00390625 </v>
   <v>       0.00390625 </v>
   <v>       0.00390625 </v>
   <v>       0.00390625 </v>
   <v>       0.00390625 </v>
   <v>       0.00390625 </v>
   <v>       0.00390625 </v>
   <v>       0.00390625 </v>
   <v>       0.00390625 </v>
   <v>       0.00390625 </v>
   <v>       0.00390625 </v>
   <v>       0.00390625 </v>
   <v>       0.00390625 </v>
   <v>       0.00390625 </v>
   <v>       0.00390625 </v>
   <v>       0.00390625 </v>
   <v>       0.00390625 </v>
   <v>       0.00390625 </v>
   <v>       0.00390625 </v>
   <v>       0.00390625 </v>
   <v>       0.00390625 </v>
   <v>       0.00390625 </v>
   <v>       0.00390625 </v>
   <v>       0.00390625 </v>
   <v>       0.00390625 </v>
   <v>       0.00390625 </v>
   <v>       0.00390625 </v>
   <v>       0.00390625 </v>
   <v>       0.00390625 </v>
   <v>       0.00390625 </v>
   <v>       0.00390625 </v>
   <v>       0.00390625 </v>
   <v>       0.00390625 </v>
   <v>       0.00390625 </v>
   <v>       0.00390625 </v>
   <v>       0.00390625 </v>
   <v>       0.00390625 </v>
   <v>       0.00390625 </v>
   <v>       0.00390625 </v>
   <v>       0.00390625 </v>
   <v>       0.00390625 </v>
  </varray>
 </kpoints>
 <parameters>
  <separator name="general" >
   <i type="string" name="SYSTEM">unknown system</i>
   <i type="logical" name="LCOMPAT"> F  </i>
  </separator>
  <separator name="electronic" >
   <i type="string" name="PREC">accura</i>
   <i name="ENMAX">    400.00000000</i>
   <i name="ENAUG">    322.06900000</i>
   <i name="EDIFF">      0.00010000</i>
   <i type="int" name="IALGO">    38</i>
   <i type="int" name="IWAVPR">    10</i>
   <i type="int" name="NBANDS">    24</i>
   <i name="NELECT">     32.00000000</i>
   <i type="int" name="TURBO">     0</i>
   <i type="int" name="IRESTART">     0</i>
   <i type="int" name="NREBOOT">     0</i>
   <i type="int" name="NMIN">     0</i>
   <i name="EREF">      0.00000000</i>
   <separator name="electronic smearing" >
    <i type="int" name="ISMEAR">     2</i>
    <i name="SIGMA">      0.01000000</i>
    <i name="KSPACING">      0.50000000</i>
    <i type="logical" name="KGAMMA"> T  </i>
   </separator>
   <separator name="electronic projectors" >
    <i type="logical" name="LREAL"> F  </i>
    <v name="ROPT">      0.00000000</v>
    <i type="int" name="LMAXPAW">  -100</i>
    <i type="int" name="LMAXMIX">     2</i>
    <i type="logical" name="NLSPLINE"> F  </i>
   </separator>
   <separator name="electronic startup" >
    <i type="int" name="ISTART">     0</i>
    <i type="int" name="ICHARG">     2</i>
    <i type="int" name="INIWAV">     1</i>
   </separator>
   <separator name="electronic spin" >
    <i type="int" name="ISPIN">     1</i>
    <i type="logical" name="LNONCOLLINEAR"> F  </i>
    <v name="MAGMOM">      1.00000000      1.00000000      1.00000000      1.00000000      1.00000000      1.00000000      1.00000000      1.00000000</v>
    <i name="NUPDOWN">     -1.00000000</i>
    <i type="logical" name="LSORBIT"> F  </i>
    <v name="SAXIS">      0.00000000      0.00000000      1.00000000</v>
    <i type="logical" name="LSPIRAL"> F  </i>
    <v name="QSPIRAL">      0.00000000      0.00000000      0.00000000</v>
    <i type="logical" name="LZEROZ"> F  </i>
   </separator>
   <separator name="electronic exchange-correlation" >
    <i type="logical" name="LASPH"> F  </i>
    <i type="logical" name="LMETAGGA"> F  </i>
   </separator>
   <separator name="electronic convergence" >
    <i type="int" name="NELM">    60</i>
    <i type="int" name="NELMDL">    -5</i>
    <i type="int" name="NELMIN">     2</i>
    <i name="ENINI">    400.00000000</i>
    <separator name="electronic convergence detail" >
     <i type="logical" name="LDIAG"> T  </i>
     <i type="logical" name="LSUBROT"> F  </i>
     <i name="WEIMIN">      0.00000000</i>
     <i name="EBREAK">      0.00000104</i>
     <i name="DEPER">      0.30000000</i>
     <i type="int" name="NRMM">     4</i>
     <i name="TIME">      0.40000000</i>
    </separator>
   </separator>
   <separator name="electronic mixer" >
    <i name="AMIX">      0.40000000</i>
    <i name="BMIX">      1.00000000</i>
    <i name="AMIN">      0.10000000</i>
    <i name="AMIX_MAG">      1.60000000</i>
    <i name="BMIX_MAG">      1.00000000</i>
    <separator name="electronic mixer details" >
     <i type="int" name="IMIX">     4</i>
     <i type="logical" name="MIXFIRST"> F  </i>
     <i type="int" name="MAXMIX">   -45</i>
     <i name="WC">    100.00000000</i>
     <i type="int" name="INIMIX">     1</i>
     <i type="int" name="MIXPRE">     1</i>
     <i type="int" name="MREMOVE">     5</i>
    </separator>
   </separator>
   <separator name="electronic dipolcorrection" >
    <i type="logical" name="LDIPOL"> F  </i>
    <i type="logical" name="LMONO"> F  </i>
    <i type="int" name="IDIPOL">     0</i>
    <i name="EPSILON">      1.00000000</i>
    <v name="DIPOL">   -100.00000000   -100.00000000   -100.00000000</v>
    <i name="EFIELD">      0.00000000</i>
   </separator>
  </separator>
  <separator name="grids" >
   <i type="int" name="NGX">    36</i>
   <i type="int" name="NGY">    36</i>
   <i type="int" name="NGZ">    36</i>
   <i type="int" name="NGXF">    72</i>
   <i type="int" name="NGYF">    72</i>
   <i type="int" name="NGZF">    72</i>
   <i type="logical" name="ADDGRID"> F  </i>
  </separator>
  <separator name="ionic" >
   <i type="int" name="NSW">     0</i>
   <i type="int" name="IBRION">    -1</i>
   <i type="int" name="ISIF">     2</i>
   <i name="PSTRESS">      0.00000000</i>
   <i name="EDIFFG">      0.00100000</i>
   <i type="int" name="NFREE">     0</i>
   <i name="POTIM">      0.50000000</i>
   <i name="SMASS">     -3.00000000</i>
   <i name="SCALEE">      1.00000000</i>
  </separator>
  <separator name="ionic md" >
   <i name="TEBEG">      0.00010000</i>
   <i name="TEEND">      0.00010000</i>
   <i type="int" name="NBLOCK">     1</i>
   <i type="int" name="KBLOCK">     1</i>
   <i type="int" name="NPACO">   256</i>
   <i name="APACO">     16.00000000</i>
  </separator>
  <separator name="symmetry" >
   <i type="int" name="ISYM">     2</i>
   <i name="SYMPREC">      0.00001000</i>
  </separator>
  <separator name="dos" >
   <i type="logical" name="LORBIT"> F  </i>
   <v name="RWIGS">     -1.00000000</v>
   <i type="int" name="NEDOS">   301</i>
   <i name="EMIN">     10.00000000</i>
   <i name="EMAX">    -10.00000000</i>
   <i name="EFERMI">      0.00000000</i>
  </separator>
  <separator name="writing" >
   <i type="int" name="NWRITE">     1</i>
   <i type="logical" name="LWAVE"> T  </i>
   <i type="logical" name="LCHARG"> T  </i>
   <i type="logical" name="LPARD"> F  </i>
   <i type="logical" name="LVTOT"> F  </i>
   <i type="logical" name="LVHAR"> F  </i>
   <i type="logical" name="LELF"> F  </i>
   <i type="logical" name="LOPTICS"> F  </i>
   <v name="STM">      0.00000000      0.00000000      0.00000000      0.00000000      0.00000000      0.00000000      0.00000000</v>
  </separator>
  <separator name="performance" >
   <i type="int" name="NPAR">     8</i>
   <i type="int" name="NSIM">     4</i>
   <i type="int" name="NBLK">    -1</i>
   <i type="logical" name="LPLANE"> T  </i>
   <i type="logical" name="LSCALAPACK"> T  </i>
   <i type="logical" name="LSCAAWARE"> F  </i>
   <i type="logical" name="LSCALU"> F  </i>
   <i type="logical" name="LASYNC"> F  </i>
   <i type="logical" name="LORBITALREAL"> F  </i>
  </separator>
  <separator name="miscellaneous" >
   <i type="int" name="IDIOT">     3</i>
   <i type="logical" name="LMUSIC"> F  </i>
   <v name="POMASS">     28.08500000</v>
   <v name="DARWINR">      0.00000000</v>
   <v name="DARWINV">      1.00000000</v>
   <i type="logical" name="LCORR"> T  </i>
  </separator>
  <i type="logical" name="GGA_COMPAT"> T  </i>
  <i type="logical" name="LBERRY"> F  </i>
  <i type="int" name="ICORELEVEL">     0</i>
  <i type="logical" name="LDAU"> F  </i>
  <i type="int" name="I_CONSTRAINED_M">     0</i>
  <separator name="electronic exchange-correlation" >
   <i type="string" name="GGA">--</i>
   <i type="int" name="VOSKOWN">     0</i>
   <i type="logical" name="LHFCALC"> F  </i>
   <i type="string" name="PRECFOCK"></i>
   <i type="logical" name="LSYMGRAD"> F  </i>
   <i type="logical" name="LHFONE"> F  </i>
   <i type="logical" name="LRHFCALC"> F  </i>
   <i type="logical" name="LTHOMAS"> F  </i>
   <i type="logical" name="LMODELHF"> F  </i>
   <i name="ENCUT4O">     -1.00000000</i>
   <i type="int" name="EXXOEP">     0</i>
   <i type="int" name="FOURORBIT">     0</i>
   <i name="AEXX">      0.00000000</i>
   <i name="HFALPHA">      0.00000000</i>
   <i name="MCALPHA">      0.00000000</i>
   <i name="ALDAX">      1.00000000</i>
   <i name="AGGAX">      1.00000000</i>
   <i name="ALDAC">      1.00000000</i>
   <i name="AGGAC">      1.00000000</i>
   <i type="int" name="NKREDX">     1</i>
   <i type="int" name="NKREDY">     1</i>
   <i type="int" name="NKREDZ">     1</i>
   <i type="logical" name="SHIFTRED"> F  </i>
   <i type="logical" name="ODDONLY"> F  </i>
   <i type="logical" name="EVENONLY"> F  </i>
   <i type="int" name="LMAXFOCK">     0</i>
   <i type="int" name="NMAXFOCKAE">     0</i>
   <i type="logical" name="LFOCKAEDFT"> F  </i>
   <i name="HFSCREEN">      0.00000000</i>
   <i name="HFSCREENC">      0.00000000</i>
   <i type="int" name="NBANDSGWLOW">     0</i>
  </separator>
  <separator name="vdW DFT" >
   <i type="logical" name="LUSE_VDW"> F  </i>
   <i name="Zab_VDW">     -0.84910000</i>
   <i name="PARAM1">      0.12340000</i>
   <i name="PARAM2">      1.00000000</i>
   <i name="PARAM3">      0.00000000</i>
  </separator>
  <separator name="model GW" >
   <i type="int" name="MODEL_GW">     0</i>
   <i name="MODEL_EPS0">     12.26874997</i>
   <i name="MODEL_ALPHA">      1.00000000</i>
  </separator>
  <separator name="linear response parameters" >
   <i type="logical" name="LEPSILON"> F  </i>
   <i type="logical" name="LRPA"> F  </i>
   <i type="logical" name="LNABLA"> F  </i>
   <i type="logical" name="LVEL"> F  </i>
   <i type="int" name="KINTER">     0</i>
   <i name="CSHIFT">      0.10000000</i>
   <i name="OMEGAMAX">     -1.00000000</i>
   <i name="DEG_THRESHOLD">      0.00200000</i>
  </separator>
  <separator name="orbital magnetization" >
   <i type="logical" name="NUCIND"> F  </i>
   <v name="MAGPOS">      0.00000000      0.00000000      0.00000000</v>
   <i type="logical" name="LNICSALL"> T  </i>
   <i type="logical" name="ORBITALMAG"> F  </i>
   <i type="logical" name="LMAGBLOCH"> F  </i>
   <i type="logical" name="LCHIMAG"> F  </i>
   <i type="logical" name="LGAUGE"> T  </i>
   <i type="int" name="MAGATOM">     0</i>
   <v name="MAGDIPOL">      0.00000000      0.00000000      0.00000000</v>
   <v name="AVECCONST">      0.00000000      0.00000000      0.00000000</v>
  </separator>
  <separator name="response functions" >
   <i type="logical" name="LADDER"> F  </i>
   <i type="logical" name="LFXC"> F  </i>
   <i type="logical" name="LHARTREE"> T  </i>
   <i type="int" name="IBSE">     0</i>
   <v type="int" name="KPOINT">    -1     0     0     0</v>
   <i type="logical" name="LTCTE"> F  </i>
   <i type="logical" name="LTETE"> F  </i>
   <i type="logical" name="LTRIPLET"> F  </i>
   <i type="logical" name="LFXCEPS"> F  </i>
   <i type="logical" name="LFXHEG"> F  </i>
   <i type="int" name="NATURALO">     0</i>
   <i type="logical" name="L2ORDER"> F  </i>
   <i type="logical" name="LUSEW"> F  </i>
   <i name="ENCUTGW">     -2.00000000</i>
   <i name="ENCUTGWSOFT">     -2.00000000</i>
   <i name="ENCUTLF">     -1.00000000</i>
   <i type="int" name="LMAXMP2">    -1</i>
   <i name="SCISSOR">      0.00000000</i>
   <i type="int" name="NOMEGA">     0</i>
   <i type="int" name="NOMEGAR">     0</i>
   <i type="int" name="NBANDSGW">    -1</i>
   <i type="int" name="NBANDSO">    -1</i>
   <i type="int" name="NBANDSV">    -1</i>
   <i type="int" name="NELM">     1</i>
   <i type="int" name="NELMHF">     1</i>
   <i type="int" name="DIM">     3</i>
   <i type="int" name="ANTIRES">     0</i>
   <i name="OMEGAMAX">    -30.00000000</i>
   <i name="OMEGAMIN">    -30.00000000</i>
   <i name="OMEGATL">   -200.00000000</i>
   <i type="int" name="OMEGAGRID">     0</i>
   <i name="CSHIFT">     -0.10000000</i>
   <i type="logical" name="SELFENERGY"> F  </i>
   <i type="logical" name="LSPECTRAL"> F  </i>
   <i type="logical" name="LSPECTRALGW"> F  </i>
   <i type="logical" name="LSINGLES"> F  </i>
   <i type="logical" name="LFERMIGW"> F  </i>
   <i type="logical" name="ODDONLYGW"> F  </i>
   <i type="logical" name="EVENONLYGW"> F  </i>
   <i type="int" name="NKREDLFX">     1</i>
   <i type="int" name="NKREDLFY">     1</i>
   <i type="int" name="NKREDLFZ">     1</i>
   <i type="int" name="MAXMEM">  1800</i>
   <i type="int" name="TELESCOPE">     0</i>
   <i type="int" name="TAUPAR">     1</i>
   <i type="int" name="OMEGAPAR">    -1</i>
   <i name="LAMBDA">      1.00000000</i>
  </separator>
  <separator name="External order field" >
   <i name="OFIELD_KAPPA">      0.00000000</i>
   <v name="OFIELD_K">      0.00000000      0.00000000      0.00000000</v>
   <i name="OFIELD_Q6_NEAR">      0.00000000</i>
   <i name="OFIELD_Q6_FAR">      0.00000000</i>
   <i name="OFIELD_A">      0.00000000</i>
  </separator>
 </parameters>
 <atominfo>
  <atoms>       8 </atoms>
  <types>       1 </types>
  <array name="atoms" >
   <dimension dim="1">ion</dimension>
   <field type="string">element</field>
   <field type="int">atomtype</field>
   <set>
    <rc><c>Si</c><c>   1</c></rc>
    <rc><c>Si</c><c>   1</c></rc>
    <rc><c>Si</c><c>   1</c></rc>
    <rc><c>Si</c><c>   1</c></rc>
    <rc><c>Si</c><c>   1</c></rc>
    <rc><c>Si</c><c>   1</c></rc>
    <rc><c>Si</c><c>   1</c></rc>
    <rc><c>Si</c><c>   1</c></rc>
   </set>
  </array>
  <array name="atomtypes" >
   <dimension dim="1">type</dimension>
   <field type="int">atomspertype</field>
   <field type="string">element</field>
   <field>mass</field>
   <field>valence</field>
   <field type="string">pseudopotential</field>
   <set>
    <rc><c>   8</c><c>Si</c><c>     28.08500000</c><c>      4.00000000</c><c>  PAW_PBE Si 05Jan2001                  </c></rc>
   </set>
  </array>
 </atominfo>
 <structure name="initialpos" >
  <crystal>
   <varray name="basis" >
    <v>       5.46906415       0.00000000       0.00000000 </v>
    <v>       0.00000000       5.46906415       0.00000000 </v>
    <v>       0.00000000       0.00000000       5.46906415 </v>
   </varray>
   <i name="volume">    163.58333295 </i>
   <varray name="rec_basis" >
    <v>       0.18284664       0.00000000       0.00000000 </v>
    <v>       0.00000000       0.18284664       0.00000000 </v>
    <v>       0.00000000       0.00000000       0.18284664 </v>
   </varray>
  </crystal>
  <varray name="positions" >
   <v>       0.14260907       0.01521221       0.09094955 </v>
   <v>       0.39797788       0.25173484       0.34031741 </v>
   <v>       0.63806931       0.51485611       0.09310223 </v>
   <v>       0.91177905       0.73008172       0.33007293 </v>
   <v>       0.65688580       0.98680223       0.58337686 </v>
   <v>       0.88333466       0.26685908       0.84897604 </v>
   <v>       0.15762853       0.51075252       0.59372021 </v>
   <v>       0.39483821       0.76069524       0.84758339 </v>
  </varray>
 </structure>
 <calculation>
  <scstep>
   <time name="dav">    6.16    6.21</time>
   <time name="total">    6.22    6.30</time>
   <energy>
    <i name="alphaZ">     13.17029267 </i>
    <i name="ewald">   -907.64816899 </i>
    <i name="hartreedc">    -45.45201722 </i>
    <i name="XCdc">    -74.75431531 </i>
    <i name="pawpsdc">    704.99039692 </i>
    <i name="pawaedc">   -564.24414232 </i>
    <i name="eentropy">     -0.00000430 </i>
    <i name="bandstr">    103.90013789 </i>
    <i name="atom">    824.52596983 </i>
    <i name="e_fr_energy">     54.48814918 </i>
    <i name="e_wo_entrp">     54.48815347 </i>
    <i name="e_0_energy">     54.48815025 </i>
   </energy>
  </scstep>
  <scstep>
   <time name="dav">    7.57    7.56</time>
   <time name="total">    7.57    7.59</time>
   <energy>
    <i name="e_fr_energy">    -39.61510747 </i>
    <i name="e_wo_entrp">    -39.61510747 </i>
    <i name="e_0_energy">    -39.61510747 </i>
   </energy>
  </scstep>
  <scstep>
   <time name="dav">    7.54    7.53</time>
   <time name="total">    7.54    7.55</time>
   <energy>
    <i name="e_fr_energy">    -43.77291129 </i>
    <i name="e_wo_entrp">    -43.77291129 </i>
    <i name="e_0_energy">    -43.77291129 </i>
   </energy>
  </scstep>
  <scstep>
   <time name="dav">    7.30    7.30</time>
   <time name="total">    7.30    7.32</time>
   <energy>
    <i name="e_fr_energy">    -43.84308812 </i>
    <i name="e_wo_entrp">    -43.84309226 </i>
    <i name="e_0_energy">    -43.84308915 </i>
   </energy>
  </scstep>
  <scstep>
   <time name="dav">    7.59    7.61</time>
   <time name="total">    7.82    7.84</time>
   <energy>
    <i name="e_fr_energy">    -43.84483254 </i>
    <i name="e_wo_entrp">    -43.84483254 </i>
    <i name="e_0_energy">    -43.84483254 </i>
   </energy>
  </scstep>
  <scstep>
   <time name="dav">    7.09    7.10</time>
   <time name="total">    7.34    7.35</time>
   <energy>
    <i name="e_fr_energy">    -43.37595086 </i>
    <i name="e_wo_entrp">    -43.37595517 </i>
    <i name="e_0_energy">    -43.37595193 </i>
   </energy>
  </scstep>
  <scstep>
   <time name="dav">    7.07    7.06</time>
   <time name="total">    7.30    7.31</time>
   <energy>
    <i name="e_fr_energy">    -43.16323234 </i>
    <i name="e_wo_entrp">    -43.16323234 </i>
    <i name="e_0_energy">    -43.16323234 </i>
   </energy>
  </scstep>
  <scstep>
   <time name="dav">    7.31    7.32</time>
   <time name="total">    7.55    7.57</time>
   <energy>
    <i name="e_fr_energy">    -43.16718612 </i>
    <i name="e_wo_entrp">    -43.16718612 </i>
    <i name="e_0_energy">    -43.16718612 </i>
   </energy>
  </scstep>
  <scstep>
   <time name="dav">    7.45    7.45</time>
   <time name="total">    7.68    7.69</time>
   <energy>
    <i name="e_fr_energy">    -43.16814841 </i>
    <i name="e_wo_entrp">    -43.16814841 </i>
    <i name="e_0_energy">    -43.16814841 </i>
   </energy>
  </scstep>
  <scstep>
   <time name="dav">    6.76    6.75</time>
   <time name="total">    6.99    7.00</time>
   <energy>
    <i name="e_fr_energy">    -43.16829947 </i>
    <i name="e_wo_entrp">    -43.16829947 </i>
    <i name="e_0_energy">    -43.16829947 </i>
   </energy>
  </scstep>
  <scstep>
   <time name="dav">    5.84    5.84</time>
   <time name="total">    5.88    5.89</time>
   <energy>
    <i name="alphaZ">     13.17029267 </i>
    <i name="ewald">   -907.64816899 </i>
    <i name="hartreedc">    -60.61319015 </i>
    <i name="XCdc">    -72.28210040 </i>
    <i name="pawpsdc">   3297.77485884 </i>
    <i name="pawaedc">  -3157.84243899 </i>
    <i name="eentropy">      0.00000459 </i>
    <i name="bandstr">     19.74642197 </i>
    <i name="atom">    824.52596983 </i>
    <i name="e_fr_energy">    -43.16835064 </i>
    <i name="e_wo_entrp">    -43.16835523 </i>
    <i name="e_0_energy">    -43.16835179 </i>
   </energy>
  </scstep>
  <structure>
   <crystal>
    <varray name="basis" >
     <v>       5.46906415       0.00000000       0.00000000 </v>
     <v>       0.00000000       5.46906415       0.00000000 </v>
     <v>       0.00000000       0.00000000       5.46906415 </v>
    </varray>
    <i name="volume">    163.58333295 </i>
    <varray name="rec_basis" >
     <v>       0.18284664       0.00000000       0.00000000 </v>
     <v>       0.00000000       0.18284664       0.00000000 </v>
     <v>       0.00000000       0.00000000       0.18284664 </v>
    </varray>
   </crystal>
   <varray name="positions" >
    <v>       0.14260907       0.01521221       0.09094955 </v>
    <v>       0.39797788       0.25173484       0.34031741 </v>
    <v>       0.63806931       0.51485611       0.09310223 </v>
    <v>       0.91177905       0.73008172       0.33007293 </v>
    <v>       0.65688580       0.98680223       0.58337686 </v>
    <v>       0.88333466       0.26685908       0.84897604 </v>
    <v>       0.15762853       0.51075252       0.59372021 </v>
    <v>       0.39483821       0.76069524       0.84758339 </v>
   </varray>
  </structure>
  <varray name="forces" >
   <v>      -0.24646385      -0.20496802      -0.07420086 </v>
   <v>       0.33010381      -0.13429377       0.48713320 </v>
   <v>      -0.17898748      -0.67369357       0.06850194 </v>
   <v>      -0.17058872       1.34431353       0.34062410 </v>
   <v>       0.04774419       0.58807647       0.14266369 </v>
   <v>       0.44316847      -0.53033557      -0.96616987 </v>
   <v>      -0.25999468      -0.95537353       0.44102979 </v>
   <v>       0.03501826       0.56627447      -0.43958199 </v>
  </varray>
  <varray name="stress" >
   <v>       1.65808831      -2.59254396      10.79954134 </v>
   <v>      -2.59254393      -2.44288204       2.34206347 </v>
   <v>      10.79954136       2.34206350       0.56865923 </v>
  </varray>
  <energy>
   <i name="e_fr_energy">    -43.16835064 </i>
   <i name="e_wo_entrp">    -43.16835179 </i>
   <i name="e_0_energy">      0.00000459 </i>
  </energy>
  <time name="totalsc">   84.43   84.83</time>
  <eigenvalues>
   <array>
    <dimension dim="1">band</dimension>
    <dimension dim="2">kpoint</dimension>
    <dimension dim="3">spin</dimension>
    <field>eigene</field>
    <field>occ</field>
    <set>
     <set comment="spin 1">
      <set comment="kpoint 1">
       <r>   -6.1668    1.0000 </r>
       <r>   -2.7447    1.0000 </r>
       <r>   -2.6090    1.0000 </r>
       <r>   -2.4106    1.0000 </r>
       <r>   -1.7705    1.0000 </r>
       <r>   -1.6424    1.0000 </r>
       <r>   -1.4830    1.0000 </r>
       <r>    2.5436    1.0000 </r>
       <r>    2.5917    1.0000 </r>
       <r>    2.6710    1.0000 </r>
       <r>    2.8270    1.0000 </r>
       <r>    2.9058    1.0000 </r>
       <r>    2.9463    1.0000 </r>
       <r>    5.0502    1.0000 </r>
       <r>    5.4154    1.0000 </r>
       <r>    5.6578    0.9517 </r>
       <r>    6.2173    0.0000 </r>
       <r>    6.4462    0.0000 </r>
       <r>    6.5121    0.0000 </r>
       <r>    6.5490    0.0000 </r>
       <r>    6.7301    0.0000 </r>
       <r>    6.8954    0.0000 </r>
       <r>    8.2161    0.0000 </r>
       <r>    8.2873    0.0000 </r>
      </set>
      <set comment="kpoint 2">
       <r>   -6.0328    1.0000 </r>
       <r>   -3.4713    1.0000 </r>
       <r>   -2.5885    1.0000 </r>
       <r>   -2.4533    1.0000 </r>
       <r>   -1.6791    1.0000 </r>
       <r>   -1.5509    1.0000 </r>
       <r>   -0.6292    1.0000 </r>
       <r>    2.1278    1.0000 </r>
       <r>    2.2189    1.0000 </r>
       <r>    2.6378    1.0000 </r>
       <r>    2.7607    1.0000 </r>
       <r>    2.8686    1.0000 </r>
       <r>    3.0342    1.0000 </r>
       <r>    4.3264    1.0000 </r>
       <r>    5.1130    1.0000 </r>
       <r>    5.3240    1.0000 </r>
       <r>    6.3544    0.0000 </r>
       <r>    6.7448    0.0000 </r>
       <r>    6.8594    0.0000 </r>
       <r>    7.0613    0.0000 </r>
       <r>    7.4629    0.0000 </r>
       <r>    7.5739    0.0000 </r>
       <r>    8.0483    0.0000 </r>
       <r>    8.6187    0.0000 </r>
      </set>
      <set comment="kpoint 3">
       <r>   -5.7663    1.0000 </r>
       <r>   -4.2126    1.0000 </r>
       <r>   -2.5121    1.0000 </r>
       <r>   -2.3838    1.0000 </r>
       <r>   -1.6544    1.0000 </r>
       <r>   -1.5217    1.0000 </r>
       <r>    0.3967    1.0000 </r>
       <r>    1.7622    1.0000 </r>
       <r>    1.8484    1.0000 </r>
       <r>    2.3859    1.0000 </r>
       <r>    2.4926    1.0000 </r>
       <r>    3.0614    1.0000 </r>
       <r>    3.2613    1.0000 </r>
       <r>    3.4674    1.0000 </r>
       <r>    4.5777    1.0000 </r>
       <r>    4.6935    1.0000 </r>
       <r>    6.5094    0.0000 </r>
       <r>    7.4756    0.0000 </r>
       <r>    7.5690    0.0000 </r>
       <r>    7.7507    0.0000 </r>
       <r>    7.8804    0.0000 </r>
       <r>    8.5627    0.0000 </r>
       <r>    8.7184    0.0000 </r>
       <r>    9.3608    0.0000 </r>
      </set>
      <set comment="kpoint 4">
       <r>   -5.3705    1.0000 </r>
       <r>   -4.8502    1.0000 </r>
       <r>   -2.4489    1.0000 </r>
       <r>   -2.3264    1.0000 </r>
       <r>   -1.6457    1.0000 </r>
       <r>   -1.5067    1.0000 </r>
       <r>    1.3919    1.0000 </r>
       <r>    1.5780    1.0000 </r>
       <r>    1.6593    1.0000 </r>
       <r>    2.1812    1.0000 </r>
       <r>    2.2756    1.0000 </r>
       <r>    2.5170    1.0000 </r>
       <r>    3.4613    1.0000 </r>
       <r>    3.6186    1.0000 </r>
       <r>    4.0083    1.0000 </r>
       <r>    4.0915    1.0000 </r>
       <r>    6.7731    0.0000 </r>
       <r>    7.1403    0.0000 </r>
       <r>    8.3156    0.0000 </r>
       <r>    8.9213    0.0000 </r>
       <r>    9.0478    0.0000 </r>
       <r>    9.2290    0.0000 </r>
       <r>    9.7582    0.0000 </r>
       <r>    9.8850    0.0000 </r>
      </set>
      <set comment="kpoint 5">
       <r>   -5.3730    1.0000 </r>
       <r>   -4.8462    1.0000 </r>
       <r>   -2.4475    1.0000 </r>
       <r>   -2.3303    1.0000 </r>
       <r>   -1.6479    1.0000 </r>
       <r>   -1.5051    1.0000 </r>
       <r>    1.3012    1.0000 </r>
       <r>    1.6374    1.0000 </r>
       <r>    1.7523    1.0000 </r>
       <r>    2.1258    1.0000 </r>
       <r>    2.2610    1.0000 </r>
       <r>    2.5405    1.0000 </r>
       <r>    3.4632    1.0000 </r>
       <r>    3.6160    1.0000 </r>
       <r>    3.9956    1.0000 </r>
       <r>    4.0899    1.0000 </r>
       <r>    6.7688    0.0000 </r>
       <r>    7.1419    0.0000 </r>
       <r>    8.3075    0.0000 </r>
       <r>    8.8774    0.0000 </r>
       <r>    9.0415    0.0000 </r>
       <r>    9.2098    0.0000 </r>
       <r>    9.8284    0.0000 </r>
       <r>    9.9512    0.0000 </r>
      </set>
      <set comment="kpoint 6">
       <r>   -5.7679    1.0000 </r>
       <r>   -4.2056    1.0000 </r>
       <r>   -2.5109    1.0000 </r>
       <r>   -2.3948    1.0000 </r>
       <r>   -1.6582    1.0000 </r>
       <r>   -1.5166    1.0000 </r>
       <r>    0.3734    1.0000 </r>
       <r>    1.8153    1.0000 </r>
       <r>    1.8812    1.0000 </r>
       <r>    2.3592    1.0000 </r>
       <r>    2.4744    1.0000 </r>
       <r>    3.0571    1.0000 </r>
       <r>    3.2566    1.0000 </r>
       <r>    3.4852    1.0000 </r>
       <r>    4.5796    1.0000 </r>
       <r>    4.6647    1.0000 </r>
       <r>    6.5033    0.0000 </r>
       <r>    7.4375    0.0000 </r>
       <r>    7.5585    0.0000 </r>
       <r>    7.7125    0.0000 </r>
       <r>    7.9115    0.0000 </r>
       <r>    8.6119    0.0000 </r>
       <r>    8.7261    0.0000 </r>
       <r>    9.3753    0.0000 </r>
      </set>
      <set comment="kpoint 7">
       <r>   -6.0336    1.0000 </r>
       <r>   -3.4558    1.0000 </r>
       <r>   -2.5932    1.0000 </r>
       <r>   -2.4748    1.0000 </r>
       <r>   -1.6774    1.0000 </r>
       <r>   -1.5391    1.0000 </r>
       <r>   -0.6438    1.0000 </r>
       <r>    2.1777    1.0000 </r>
       <r>    2.2530    1.0000 </r>
       <r>    2.6477    1.0000 </r>
       <r>    2.7349    1.0000 </r>
       <r>    2.8213    1.0000 </r>
       <r>    3.0235    1.0000 </r>
       <r>    4.3605    1.0000 </r>
       <r>    5.1293    1.0000 </r>
       <r>    5.2804    1.0000 </r>
       <r>    6.3528    0.0000 </r>
       <r>    6.6601    0.0000 </r>
       <r>    6.7996    0.0000 </r>
       <r>    7.1175    0.0000 </r>
       <r>    7.5104    0.0000 </r>
       <r>    7.6151    0.0000 </r>
       <r>    8.0310    0.0000 </r>
       <r>    8.6368    0.0000 </r>
      </set>
      <set comment="kpoint 8">
       <r>   -6.1671    1.0000 </r>
       <r>   -2.6712    1.0000 </r>
       <r>   -2.6225    1.0000 </r>
       <r>   -2.5004    1.0000 </r>
       <r>   -1.7004    1.0000 </r>
       <r>   -1.6388    1.0000 </r>
       <r>   -1.5305    1.0000 </r>
       <r>    2.5934    1.0000 </r>
       <r>    2.6176    1.0000 </r>
       <r>    2.6812    1.0000 </r>
       <r>    2.7971    1.0000 </r>
       <r>    2.8862    1.0000 </r>
       <r>    2.9105    1.0000 </r>
       <r>    5.0850    1.0000 </r>
       <r>    5.4289    1.0000 </r>
       <r>    5.6376    0.9982 </r>
       <r>    6.2023    0.0000 </r>
       <r>    6.3414    0.0000 </r>
       <r>    6.3991    0.0000 </r>
       <r>    6.7068    0.0000 </r>
       <r>    6.7994    0.0000 </r>
       <r>    6.8668    0.0000 </r>
       <r>    8.2197    0.0000 </r>
       <r>    8.2957    0.0000 </r>
      </set>
      <set comment="kpoint 9">
       <r>   -6.0349    1.0000 </r>
       <r>   -3.4382    1.0000 </r>
       <r>   -2.6756    1.0000 </r>
       <r>   -2.3952    1.0000 </r>
       <r>   -1.7284    1.0000 </r>
       <r>   -1.5086    1.0000 </r>
       <r>   -0.6282    1.0000 </r>
       <r>    2.1699    1.0000 </r>
       <r>    2.2369    1.0000 </r>
       <r>    2.6744    1.0000 </r>
       <r>    2.7202    1.0000 </r>
       <r>    2.8036    1.0000 </r>
       <r>    3.0374    1.0000 </r>
       <r>    4.3413    1.0000 </r>
       <r>    5.1625    1.0000 </r>
       <r>    5.2443    1.0000 </r>
       <r>    6.3724    0.0000 </r>
       <r>    6.6805    0.0000 </r>
       <r>    6.9312    0.0000 </r>
       <r>    7.0387    0.0000 </r>
       <r>    7.4196    0.0000 </r>
       <r>    7.6464    0.0000 </r>
       <r>    8.0539    0.0000 </r>
       <r>    8.6121    0.0000 </r>
      </set>
      <set comment="kpoint 10">
       <r>   -5.9026    1.0000 </r>
       <r>   -3.4403    1.0000 </r>
       <r>   -3.2783    1.0000 </r>
       <r>   -2.5607    1.0000 </r>
       <r>   -1.5293    1.0000 </r>
       <r>   -0.7469    1.0000 </r>
       <r>   -0.6693    1.0000 </r>
       <r>    1.7454    1.0000 </r>
       <r>    2.2805    1.0000 </r>
       <r>    2.3306    1.0000 </r>
       <r>    2.9080    1.0000 </r>
       <r>    3.0054    1.0000 </r>
       <r>    3.0799    1.0000 </r>
       <r>    3.6208    1.0000 </r>
       <r>    4.8023    1.0000 </r>
       <r>    5.3433    1.0000 </r>
       <r>    6.5980    0.0000 </r>
       <r>    6.8805    0.0000 </r>
       <r>    6.9990    0.0000 </r>
       <r>    7.5884    0.0000 </r>
       <r>    7.8329    0.0000 </r>
       <r>    8.2929    0.0000 </r>
       <r>    8.4605    0.0000 </r>
       <r>    8.7154    0.0000 </r>
      </set>
      <set comment="kpoint 11">
       <r>   -5.6394    1.0000 </r>
       <r>   -4.1105    1.0000 </r>
       <r>   -3.1675    1.0000 </r>
       <r>   -2.6552    1.0000 </r>
       <r>   -1.3894    1.0000 </r>
       <r>   -0.8647    1.0000 </r>
       <r>    0.2030    1.0000 </r>
       <r>    1.4743    1.0000 </r>
       <r>    1.8775    1.0000 </r>
       <r>    2.5588    1.0000 </r>
       <r>    2.7739    1.0000 </r>
       <r>    2.8655    1.0000 </r>
       <r>    3.0784    1.0000 </r>
       <r>    3.3063    1.0000 </r>
       <r>    4.2275    1.0000 </r>
       <r>    4.9977    1.0000 </r>
       <r>    7.0101    0.0000 </r>
       <r>    7.2133    0.0000 </r>
       <r>    7.8576    0.0000 </r>
       <r>    8.1524    0.0000 </r>
       <r>    8.2415    0.0000 </r>
       <r>    8.6942    0.0000 </r>
       <r>    8.8897    0.0000 </r>
       <r>    9.5695    0.0000 </r>
      </set>
      <set comment="kpoint 12">
       <r>   -5.2490    1.0000 </r>
       <r>   -4.7343    1.0000 </r>
       <r>   -2.9643    1.0000 </r>
       <r>   -2.8024    1.0000 </r>
       <r>   -1.2000    1.0000 </r>
       <r>   -1.0824    1.0000 </r>
       <r>    1.0578    1.0000 </r>
       <r>    1.4418    1.0000 </r>
       <r>    1.5487    1.0000 </r>
       <r>    2.0483    1.0000 </r>
       <r>    2.6814    1.0000 </r>
       <r>    2.7874    1.0000 </r>
       <r>    3.1566    1.0000 </r>
       <r>    3.6338    1.0000 </r>
       <r>    3.8397    1.0000 </r>
       <r>    4.3588    1.0000 </r>
       <r>    7.3651    0.0000 </r>
       <r>    7.7669    0.0000 </r>
       <r>    8.1457    0.0000 </r>
       <r>    8.8597    0.0000 </r>
       <r>    9.1299    0.0000 </r>
       <r>    9.3500    0.0000 </r>
       <r>    9.4676    0.0000 </r>
       <r>    9.9906    0.0000 </r>
      </set>
      <set comment="kpoint 13">
       <r>   -5.2491    1.0000 </r>
       <r>   -4.7334    1.0000 </r>
       <r>   -3.0140    1.0000 </r>
       <r>   -2.7370    1.0000 </r>
       <r>   -1.3192    1.0000 </r>
       <r>   -0.9785    1.0000 </r>
       <r>    1.0231    1.0000 </r>
       <r>    1.4662    1.0000 </r>
       <r>    1.6404    1.0000 </r>
       <r>    1.9845    1.0000 </r>
       <r>    2.6261    1.0000 </r>
       <r>    2.8601    1.0000 </r>
       <r>    3.1457    1.0000 </r>
       <r>    3.6046    1.0000 </r>
       <r>    3.7365    1.0000 </r>
       <r>    4.4690    1.0000 </r>
       <r>    7.3941    0.0000 </r>
       <r>    7.7138    0.0000 </r>
       <r>    8.2011    0.0000 </r>
       <r>    8.8272    0.0000 </r>
       <r>    9.0445    0.0000 </r>
       <r>    9.3613    0.0000 </r>
       <r>    9.5287    0.0000 </r>
       <r>   10.0500    0.0000 </r>
      </set>
      <set comment="kpoint 14">
       <r>   -5.6393    1.0000 </r>
       <r>   -4.1067    1.0000 </r>
       <r>   -3.2046    1.0000 </r>
       <r>   -2.5854    1.0000 </r>
       <r>   -1.5025    1.0000 </r>
       <r>   -0.7862    1.0000 </r>
       <r>    0.2058    1.0000 </r>
       <r>    1.4707    1.0000 </r>
       <r>    1.9639    1.0000 </r>
       <r>    2.6145    1.0000 </r>
       <r>    2.7057    1.0000 </r>
       <r>    2.8034    1.0000 </r>
       <r>    3.0672    1.0000 </r>
       <r>    3.2480    1.0000 </r>
       <r>    4.1743    1.0000 </r>
       <r>    5.1237    1.0000 </r>
       <r>    7.0878    0.0000 </r>
       <r>    7.1587    0.0000 </r>
       <r>    7.7475    0.0000 </r>
       <r>    8.1231    0.0000 </r>
       <r>    8.2704    0.0000 </r>
       <r>    8.8528    0.0000 </r>
       <r>    8.9271    0.0000 </r>
       <r>    9.5102    0.0000 </r>
      </set>
      <set comment="kpoint 15">
       <r>   -5.9024    1.0000 </r>
       <r>   -3.4266    1.0000 </r>
       <r>   -3.3027    1.0000 </r>
       <r>   -2.5263    1.0000 </r>
       <r>   -1.5981    1.0000 </r>
       <r>   -0.7301    1.0000 </r>
       <r>   -0.6316    1.0000 </r>
       <r>    1.7309    1.0000 </r>
       <r>    2.3609    1.0000 </r>
       <r>    2.3915    1.0000 </r>
       <r>    2.8165    1.0000 </r>
       <r>    2.9178    1.0000 </r>
       <r>    3.1013    1.0000 </r>
       <r>    3.5917    1.0000 </r>
       <r>    4.7339    1.0000 </r>
       <r>    5.5018    1.0000 </r>
       <r>    6.6271    0.0000 </r>
       <r>    6.8137    0.0000 </r>
       <r>    6.9229    0.0000 </r>
       <r>    7.7109    0.0000 </r>
       <r>    7.8560    0.0000 </r>
       <r>    8.3013    0.0000 </r>
       <r>    8.5043    0.0000 </r>
       <r>    8.5424    0.0000 </r>
      </set>
      <set comment="kpoint 16">
       <r>   -6.0348    1.0000 </r>
       <r>   -3.4430    1.0000 </r>
       <r>   -2.5726    1.0000 </r>
       <r>   -2.5180    1.0000 </r>
       <r>   -1.6238    1.0000 </r>
       <r>   -1.6007    1.0000 </r>
       <r>   -0.6121    1.0000 </r>
       <r>    2.1854    1.0000 </r>
       <r>    2.2118    1.0000 </r>
       <r>    2.7277    1.0000 </r>
       <r>    2.7586    1.0000 </r>
       <r>    2.8288    1.0000 </r>
       <r>    2.9158    1.0000 </r>
       <r>    4.3269    1.0000 </r>
       <r>    5.0543    1.0000 </r>
       <r>    5.3939    1.0000 </r>
       <r>    6.3302    0.0000 </r>
       <r>    6.7597    0.0000 </r>
       <r>    6.8184    0.0000 </r>
       <r>    7.1085    0.0000 </r>
       <r>    7.5197    0.0000 </r>
       <r>    7.5537    0.0000 </r>
       <r>    8.0402    0.0000 </r>
       <r>    8.5772    0.0000 </r>
      </set>
      <set comment="kpoint 17">
       <r>   -5.7746    1.0000 </r>
       <r>   -4.1798    1.0000 </r>
       <r>   -2.6065    1.0000 </r>
       <r>   -2.3121    1.0000 </r>
       <r>   -1.7000    1.0000 </r>
       <r>   -1.4882    1.0000 </r>
       <r>    0.3990    1.0000 </r>
       <r>    1.8081    1.0000 </r>
       <r>    1.8618    1.0000 </r>
       <r>    2.4177    1.0000 </r>
       <r>    2.4899    1.0000 </r>
       <r>    2.9388    1.0000 </r>
       <r>    3.2680    1.0000 </r>
       <r>    3.4913    1.0000 </r>
       <r>    4.5971    1.0000 </r>
       <r>    4.6636    1.0000 </r>
       <r>    6.5020    0.0000 </r>
       <r>    7.3893    0.0000 </r>
       <r>    7.6604    0.0000 </r>
       <r>    7.7417    0.0000 </r>
       <r>    7.9143    0.0000 </r>
       <r>    8.5439    0.0000 </r>
       <r>    8.7630    0.0000 </r>
       <r>    9.3501    0.0000 </r>
      </set>
      <set comment="kpoint 18">
       <r>   -5.6456    1.0000 </r>
       <r>   -4.0750    1.0000 </r>
       <r>   -3.2206    1.0000 </r>
       <r>   -2.6314    1.0000 </r>
       <r>   -1.3994    1.0000 </r>
       <r>   -0.8564    1.0000 </r>
       <r>    0.2013    1.0000 </r>
       <r>    1.4715    1.0000 </r>
       <r>    1.9308    1.0000 </r>
       <r>    2.5035    1.0000 </r>
       <r>    2.7654    1.0000 </r>
       <r>    2.9064    1.0000 </r>
       <r>    3.0509    1.0000 </r>
       <r>    3.3004    1.0000 </r>
       <r>    4.2246    1.0000 </r>
       <r>    5.0015    1.0000 </r>
       <r>    7.0748    0.0000 </r>
       <r>    7.1402    0.0000 </r>
       <r>    7.8625    0.0000 </r>
       <r>    8.0240    0.0000 </r>
       <r>    8.3595    0.0000 </r>
       <r>    8.8079    0.0000 </r>
       <r>    8.8451    0.0000 </r>
       <r>    9.4923    0.0000 </r>
      </set>
      <set comment="kpoint 19">
       <r>   -5.3892    1.0000 </r>
       <r>   -3.9698    1.0000 </r>
       <r>   -3.7975    1.0000 </r>
       <r>   -2.9325    1.0000 </r>
       <r>   -1.1381    1.0000 </r>
       <r>   -0.1691    1.0000 </r>
       <r>   -0.0938    1.0000 </r>
       <r>    1.3372    1.0000 </r>
       <r>    1.9111    1.0000 </r>
       <r>    2.1877    1.0000 </r>
       <r>    2.3061    1.0000 </r>
       <r>    3.1946    1.0000 </r>
       <r>    3.4013    1.0000 </r>
       <r>    3.4830    1.0000 </r>
       <r>    3.6892    1.0000 </r>
       <r>    5.0714    1.0000 </r>
       <r>    7.0786    0.0000 </r>
       <r>    8.0050    0.0000 </r>
       <r>    8.1218    0.0000 </r>
       <r>    8.4342    0.0000 </r>
       <r>    8.9780    0.0000 </r>
       <r>    9.1535    0.0000 </r>
       <r>    9.2937    0.0000 </r>
       <r>    9.4012    0.0000 </r>
      </set>
      <set comment="kpoint 20">
       <r>   -5.0101    1.0000 </r>
       <r>   -4.5135    1.0000 </r>
       <r>   -3.5688    1.0000 </r>
       <r>   -3.2662    1.0000 </r>
       <r>   -0.8102    1.0000 </r>
       <r>   -0.5360    1.0000 </r>
       <r>    0.5720    1.0000 </r>
       <r>    1.2168    1.0000 </r>
       <r>    1.5009    1.0000 </r>
       <r>    1.8304    1.0000 </r>
       <r>    2.5379    1.0000 </r>
       <r>    3.0594    1.0000 </r>
       <r>    3.4356    1.0000 </r>
       <r>    3.5332    1.0000 </r>
       <r>    4.0712    1.0000 </r>
       <r>    4.6444    1.0000 </r>
       <r>    7.6610    0.0000 </r>
       <r>    8.3144    0.0000 </r>
       <r>    8.6382    0.0000 </r>
       <r>    8.8119    0.0000 </r>
       <r>    8.8370    0.0000 </r>
       <r>    9.2859    0.0000 </r>
       <r>    9.4692    0.0000 </r>
       <r>    9.8232    0.0000 </r>
      </set>
      <set comment="kpoint 21">
       <r>   -5.0085    1.0000 </r>
       <r>   -4.5137    1.0000 </r>
       <r>   -3.6047    1.0000 </r>
       <r>   -3.2193    1.0000 </r>
       <r>   -0.9250    1.0000 </r>
       <r>   -0.4330    1.0000 </r>
       <r>    0.5747    1.0000 </r>
       <r>    1.2508    1.0000 </r>
       <r>    1.5092    1.0000 </r>
       <r>    1.7968    1.0000 </r>
       <r>    2.6076    1.0000 </r>
       <r>    2.9625    1.0000 </r>
       <r>    3.4163    1.0000 </r>
       <r>    3.5648    1.0000 </r>
       <r>    3.9624    1.0000 </r>
       <r>    4.7596    1.0000 </r>
       <r>    7.7023    0.0000 </r>
       <r>    8.3701    0.0000 </r>
       <r>    8.5472    0.0000 </r>
       <r>    8.7650    0.0000 </r>
       <r>    8.9860    0.0000 </r>
       <r>    9.1695    0.0000 </r>
       <r>    9.3566    0.0000 </r>
       <r>    9.8573    0.0000 </r>
      </set>
      <set comment="kpoint 22">
       <r>   -5.3877    1.0000 </r>
       <r>   -3.9596    1.0000 </r>
       <r>   -3.8317    1.0000 </r>
       <r>   -2.8766    1.0000 </r>
       <r>   -1.2549    1.0000 </r>
       <r>   -0.1324    1.0000 </r>
       <r>   -0.0273    1.0000 </r>
       <r>    1.3569    1.0000 </r>
       <r>    1.9706    1.0000 </r>
       <r>    2.2088    1.0000 </r>
       <r>    2.2848    1.0000 </r>
       <r>    3.1048    1.0000 </r>
       <r>    3.2618    1.0000 </r>
       <r>    3.5105    1.0000 </r>
       <r>    3.6794    1.0000 </r>
       <r>    5.1983    1.0000 </r>
       <r>    7.1148    0.0000 </r>
       <r>    7.9534    0.0000 </r>
       <r>    8.0913    0.0000 </r>
       <r>    8.4894    0.0000 </r>
       <r>    8.9746    0.0000 </r>
       <r>    9.2027    0.0000 </r>
       <r>    9.2780    0.0000 </r>
       <r>    9.4583    0.0000 </r>
      </set>
      <set comment="kpoint 23">
       <r>   -5.6446    1.0000 </r>
       <r>   -4.0850    1.0000 </r>
       <r>   -3.2138    1.0000 </r>
       <r>   -2.5954    1.0000 </r>
       <r>   -1.4904    1.0000 </r>
       <r>   -0.8354    1.0000 </r>
       <r>    0.2600    1.0000 </r>
       <r>    1.4720    1.0000 </r>
       <r>    1.9868    1.0000 </r>
       <r>    2.5861    1.0000 </r>
       <r>    2.7206    1.0000 </r>
       <r>    2.8350    1.0000 </r>
       <r>    3.0730    1.0000 </r>
       <r>    3.1491    1.0000 </r>
       <r>    4.2002    1.0000 </r>
       <r>    5.1207    1.0000 </r>
       <r>    7.0128    0.0000 </r>
       <r>    7.1846    0.0000 </r>
       <r>    7.8488    0.0000 </r>
       <r>    8.0645    0.0000 </r>
       <r>    8.4058    0.0000 </r>
       <r>    8.7675    0.0000 </r>
       <r>    8.8825    0.0000 </r>
       <r>    9.5356    0.0000 </r>
      </set>
      <set comment="kpoint 24">
       <r>   -5.7743    1.0000 </r>
       <r>   -4.1833    1.0000 </r>
       <r>   -2.4940    1.0000 </r>
       <r>   -2.4437    1.0000 </r>
       <r>   -1.5992    1.0000 </r>
       <r>   -1.5780    1.0000 </r>
       <r>    0.4200    1.0000 </r>
       <r>    1.8268    1.0000 </r>
       <r>    1.8501    1.0000 </r>
       <r>    2.4402    1.0000 </r>
       <r>    2.4658    1.0000 </r>
       <r>    3.0546    1.0000 </r>
       <r>    3.1326    1.0000 </r>
       <r>    3.4502    1.0000 </r>
       <r>    4.5409    1.0000 </r>
       <r>    4.7671    1.0000 </r>
       <r>    6.4765    0.0000 </r>
       <r>    7.4181    0.0000 </r>
       <r>    7.6911    0.0000 </r>
       <r>    7.7625    0.0000 </r>
       <r>    7.8832    0.0000 </r>
       <r>    8.6231    0.0000 </r>
       <r>    8.6587    0.0000 </r>
       <r>    9.3390    0.0000 </r>
      </set>
      <set comment="kpoint 25">
       <r>   -5.4087    1.0000 </r>
       <r>   -4.7899    1.0000 </r>
       <r>   -2.5524    1.0000 </r>
       <r>   -2.2441    1.0000 </r>
       <r>   -1.6819    1.0000 </r>
       <r>   -1.4824    1.0000 </r>
       <r>    1.3914    1.0000 </r>
       <r>    1.6437    1.0000 </r>
       <r>    1.6667    1.0000 </r>
       <r>    2.1793    1.0000 </r>
       <r>    2.2872    1.0000 </r>
       <r>    2.4959    1.0000 </r>
       <r>    3.3397    1.0000 </r>
       <r>    3.6059    1.0000 </r>
       <r>    4.0283    1.0000 </r>
       <r>    4.1372    1.0000 </r>
       <r>    6.7453    0.0000 </r>
       <r>    7.1385    0.0000 </r>
       <r>    8.3802    0.0000 </r>
       <r>    8.8627    0.0000 </r>
       <r>    9.0787    0.0000 </r>
       <r>    9.2843    0.0000 </r>
       <r>    9.7630    0.0000 </r>
       <r>    9.9533    0.0000 </r>
      </set>
      <set comment="kpoint 26">
       <r>   -5.2845    1.0000 </r>
       <r>   -4.6722    1.0000 </r>
       <r>   -3.0692    1.0000 </r>
       <r>   -2.7267    1.0000 </r>
       <r>   -1.2158    1.0000 </r>
       <r>   -1.0660    1.0000 </r>
       <r>    1.0635    1.0000 </r>
       <r>    1.4215    1.0000 </r>
       <r>    1.6257    1.0000 </r>
       <r>    1.9713    1.0000 </r>
       <r>    2.7155    1.0000 </r>
       <r>    2.8567    1.0000 </r>
       <r>    3.0647    1.0000 </r>
       <r>    3.5719    1.0000 </r>
       <r>    3.8746    1.0000 </r>
       <r>    4.3809    1.0000 </r>
       <r>    7.3621    0.0000 </r>
       <r>    7.7363    0.0000 </r>
       <r>    8.1720    0.0000 </r>
       <r>    8.8544    0.0000 </r>
       <r>    9.1286    0.0000 </r>
       <r>    9.4041    0.0000 </r>
       <r>    9.4791    0.0000 </r>
       <r>    9.9971    0.0000 </r>
      </set>
      <set comment="kpoint 27">
       <r>   -5.0389    1.0000 </r>
       <r>   -4.4453    1.0000 </r>
       <r>   -3.6538    1.0000 </r>
       <r>   -3.2224    1.0000 </r>
       <r>   -0.8149    1.0000 </r>
       <r>   -0.5201    1.0000 </r>
       <r>    0.5585    1.0000 </r>
       <r>    1.2461    1.0000 </r>
       <r>    1.4880    1.0000 </r>
       <r>    1.7942    1.0000 </r>
       <r>    2.5744    1.0000 </r>
       <r>    3.0636    1.0000 </r>
       <r>    3.3902    1.0000 </r>
       <r>    3.5540    1.0000 </r>
       <r>    4.0675    1.0000 </r>
       <r>    4.6527    1.0000 </r>
       <r>    7.6718    0.0000 </r>
       <r>    8.3272    0.0000 </r>
       <r>    8.5766    0.0000 </r>
       <r>    8.7793    0.0000 </r>
       <r>    8.8993    0.0000 </r>
       <r>    9.2746    0.0000 </r>
       <r>    9.4845    0.0000 </r>
       <r>    9.8155    0.0000 </r>
      </set>
      <set comment="kpoint 28">
       <r>   -4.6791    1.0000 </r>
       <r>   -4.2475    1.0000 </r>
       <r>   -4.0705    1.0000 </r>
       <r>   -3.6880    1.0000 </r>
       <r>   -0.3757    1.0000 </r>
       <r>   -0.0152    1.0000 </r>
       <r>    0.0822    1.0000 </r>
       <r>    0.6557    1.0000 </r>
       <r>    1.6633    1.0000 </r>
       <r>    2.0454    1.0000 </r>
       <r>    2.1491    1.0000 </r>
       <r>    2.5529    1.0000 </r>
       <r>    3.9381    1.0000 </r>
       <r>    4.0657    1.0000 </r>
       <r>    4.3301    1.0000 </r>
       <r>    4.6143    1.0000 </r>
       <r>    7.6766    0.0000 </r>
       <r>    8.2172    0.0000 </r>
       <r>    8.2637    0.0000 </r>
       <r>    8.4979    0.0000 </r>
       <r>    9.5110    0.0000 </r>
       <r>    9.6087    0.0000 </r>
       <r>    9.8197    0.0000 </r>
       <r>    9.9905    0.0000 </r>
      </set>
      <set comment="kpoint 29">
       <r>   -4.6808    1.0000 </r>
       <r>   -4.2341    1.0000 </r>
       <r>   -4.0984    1.0000 </r>
       <r>   -3.6648    1.0000 </r>
       <r>   -0.4867    1.0000 </r>
       <r>    0.0420    1.0000 </r>
       <r>    0.1413    1.0000 </r>
       <r>    0.6495    1.0000 </r>
       <r>    1.7111    1.0000 </r>
       <r>    2.0313    1.0000 </r>
       <r>    2.1426    1.0000 </r>
       <r>    2.5304    1.0000 </r>
       <r>    3.9440    1.0000 </r>
       <r>    4.0532    1.0000 </r>
       <r>    4.2214    1.0000 </r>
       <r>    4.7171    1.0000 </r>
       <r>    7.7195    0.0000 </r>
       <r>    8.2274    0.0000 </r>
       <r>    8.3550    0.0000 </r>
       <r>    8.3688    0.0000 </r>
       <r>    9.3898    0.0000 </r>
       <r>    9.5788    0.0000 </r>
       <r>    9.7830    0.0000 </r>
       <r>   10.0238    0.0000 </r>
      </set>
      <set comment="kpoint 30">
       <r>   -5.0388    1.0000 </r>
       <r>   -4.4543    1.0000 </r>
       <r>   -3.6467    1.0000 </r>
       <r>   -3.2000    1.0000 </r>
       <r>   -0.9326    1.0000 </r>
       <r>   -0.4908    1.0000 </r>
       <r>    0.6442    1.0000 </r>
       <r>    1.2631    1.0000 </r>
       <r>    1.5110    1.0000 </r>
       <r>    1.8294    1.0000 </r>
       <r>    2.5377    1.0000 </r>
       <r>    3.0380    1.0000 </r>
       <r>    3.3371    1.0000 </r>
       <r>    3.5691    1.0000 </r>
       <r>    3.9731    1.0000 </r>
       <r>    4.7526    1.0000 </r>
       <r>    7.7211    0.0000 </r>
       <r>    8.2240    0.0000 </r>
       <r>    8.6774    0.0000 </r>
       <r>    8.7522    0.0000 </r>
       <r>    8.8614    0.0000 </r>
       <r>    9.2636    0.0000 </r>
       <r>    9.3844    0.0000 </r>
       <r>    9.9213    0.0000 </r>
      </set>
      <set comment="kpoint 31">
       <r>   -5.2842    1.0000 </r>
       <r>   -4.6781    1.0000 </r>
       <r>   -3.0330    1.0000 </r>
       <r>   -2.7314    1.0000 </r>
       <r>   -1.3163    1.0000 </r>
       <r>   -1.0346    1.0000 </r>
       <r>    1.1273    1.0000 </r>
       <r>    1.4515    1.0000 </r>
       <r>    1.6856    1.0000 </r>
       <r>    1.9444    1.0000 </r>
       <r>    2.6647    1.0000 </r>
       <r>    2.8655    1.0000 </r>
       <r>    3.0700    1.0000 </r>
       <r>    3.4669    1.0000 </r>
       <r>    3.8513    1.0000 </r>
       <r>    4.4608    1.0000 </r>
       <r>    7.2902    0.0000 </r>
       <r>    7.7493    0.0000 </r>
       <r>    8.2093    0.0000 </r>
       <r>    8.8892    0.0000 </r>
       <r>    9.1466    0.0000 </r>
       <r>    9.4144    0.0000 </r>
       <r>    9.4920    0.0000 </r>
       <r>   10.0345    0.0000 </r>
      </set>
      <set comment="kpoint 32">
       <r>   -5.4085    1.0000 </r>
       <r>   -4.7919    1.0000 </r>
       <r>   -2.4291    1.0000 </r>
       <r>   -2.3823    1.0000 </r>
       <r>   -1.5886    1.0000 </r>
       <r>   -1.5737    1.0000 </r>
       <r>    1.4161    1.0000 </r>
       <r>    1.6430    1.0000 </r>
       <r>    1.7106    1.0000 </r>
       <r>    2.2044    1.0000 </r>
       <r>    2.2362    1.0000 </r>
       <r>    2.4809    1.0000 </r>
       <r>    3.4088    1.0000 </r>
       <r>    3.4722    1.0000 </r>
       <r>    4.0912    1.0000 </r>
       <r>    4.1257    1.0000 </r>
       <r>    6.7225    0.0000 </r>
       <r>    7.1344    0.0000 </r>
       <r>    8.4054    0.0000 </r>
       <r>    8.9645    0.0000 </r>
       <r>    9.0155    0.0000 </r>
       <r>    9.2490    0.0000 </r>
       <r>    9.8700    0.0000 </r>
       <r>    9.8815    0.0000 </r>
      </set>
      <set comment="kpoint 33">
       <r>   -5.4089    1.0000 </r>
       <r>   -4.7895    1.0000 </r>
       <r>   -2.5527    1.0000 </r>
       <r>   -2.2448    1.0000 </r>
       <r>   -1.6819    1.0000 </r>
       <r>   -1.4818    1.0000 </r>
       <r>    1.4126    1.0000 </r>
       <r>    1.5977    1.0000 </r>
       <r>    1.6863    1.0000 </r>
       <r>    2.1949    1.0000 </r>
       <r>    2.2844    1.0000 </r>
       <r>    2.4845    1.0000 </r>
       <r>    3.3410    1.0000 </r>
       <r>    3.6064    1.0000 </r>
       <r>    4.0321    1.0000 </r>
       <r>    4.1367    1.0000 </r>
       <r>    6.7436    0.0000 </r>
       <r>    7.1404    0.0000 </r>
       <r>    8.3749    0.0000 </r>
       <r>    8.8696    0.0000 </r>
       <r>    9.0727    0.0000 </r>
       <r>    9.2532    0.0000 </r>
       <r>    9.7913    0.0000 </r>
       <r>    9.9736    0.0000 </r>
      </set>
      <set comment="kpoint 34">
       <r>   -5.2824    1.0000 </r>
       <r>   -4.6750    1.0000 </r>
       <r>   -3.0922    1.0000 </r>
       <r>   -2.6902    1.0000 </r>
       <r>   -1.3035    1.0000 </r>
       <r>   -0.9890    1.0000 </r>
       <r>    1.0932    1.0000 </r>
       <r>    1.4004    1.0000 </r>
       <r>    1.6629    1.0000 </r>
       <r>    1.9249    1.0000 </r>
       <r>    2.6716    1.0000 </r>
       <r>    2.8930    1.0000 </r>
       <r>    3.0987    1.0000 </r>
       <r>    3.4979    1.0000 </r>
       <r>    3.8403    1.0000 </r>
       <r>    4.4643    1.0000 </r>
       <r>    7.3789    0.0000 </r>
       <r>    7.7283    0.0000 </r>
       <r>    8.1977    0.0000 </r>
       <r>    8.8373    0.0000 </r>
       <r>    9.1098    0.0000 </r>
       <r>    9.4108    0.0000 </r>
       <r>    9.4903    0.0000 </r>
       <r>    9.9899    0.0000 </r>
      </set>
      <set comment="kpoint 35">
       <r>   -5.0345    1.0000 </r>
       <r>   -4.4505    1.0000 </r>
       <r>   -3.6782    1.0000 </r>
       <r>   -3.1871    1.0000 </r>
       <r>   -0.9054    1.0000 </r>
       <r>   -0.4390    1.0000 </r>
       <r>    0.5973    1.0000 </r>
       <r>    1.2266    1.0000 </r>
       <r>    1.4668    1.0000 </r>
       <r>    1.7999    1.0000 </r>
       <r>    2.6055    1.0000 </r>
       <r>    3.0294    1.0000 </r>
       <r>    3.3498    1.0000 </r>
       <r>    3.5862    1.0000 </r>
       <r>    3.9779    1.0000 </r>
       <r>    4.7527    1.0000 </r>
       <r>    7.7191    0.0000 </r>
       <r>    8.3541    0.0000 </r>
       <r>    8.5545    0.0000 </r>
       <r>    8.7567    0.0000 </r>
       <r>    8.9724    0.0000 </r>
       <r>    9.2273    0.0000 </r>
       <r>    9.3580    0.0000 </r>
       <r>    9.8396    0.0000 </r>
      </set>
      <set comment="kpoint 36">
       <r>   -4.6729    1.0000 </r>
       <r>   -4.2501    1.0000 </r>
       <r>   -4.0962    1.0000 </r>
       <r>   -3.6606    1.0000 </r>
       <r>   -0.4640    1.0000 </r>
       <r>    0.0389    1.0000 </r>
       <r>    0.1512    1.0000 </r>
       <r>    0.6163    1.0000 </r>
       <r>    1.6654    1.0000 </r>
       <r>    2.0632    1.0000 </r>
       <r>    2.1572    1.0000 </r>
       <r>    2.5308    1.0000 </r>
       <r>    3.9469    1.0000 </r>
       <r>    4.0564    1.0000 </r>
       <r>    4.2291    1.0000 </r>
       <r>    4.7103    1.0000 </r>
       <r>    7.7211    0.0000 </r>
       <r>    8.2273    0.0000 </r>
       <r>    8.3506    0.0000 </r>
       <r>    8.3633    0.0000 </r>
       <r>    9.4909    0.0000 </r>
       <r>    9.5969    0.0000 </r>
       <r>    9.7600    0.0000 </r>
       <r>    9.9575    0.0000 </r>
      </set>
      <set comment="kpoint 37">
       <r>   -4.6911    1.0000 </r>
       <r>   -4.2392    1.0000 </r>
       <r>   -4.0611    1.0000 </r>
       <r>   -3.6856    1.0000 </r>
       <r>   -0.4429    1.0000 </r>
       <r>   -0.0180    1.0000 </r>
       <r>    0.0733    1.0000 </r>
       <r>    0.7251    1.0000 </r>
       <r>    1.7510    1.0000 </r>
       <r>    2.0046    1.0000 </r>
       <r>    2.1553    1.0000 </r>
       <r>    2.5226    1.0000 </r>
       <r>    3.9260    1.0000 </r>
       <r>    4.0495    1.0000 </r>
       <r>    4.3224    1.0000 </r>
       <r>    4.6280    1.0000 </r>
       <r>    7.6757    0.0000 </r>
       <r>    8.2330    0.0000 </r>
       <r>    8.2644    0.0000 </r>
       <r>    8.5034    0.0000 </r>
       <r>    9.3557    0.0000 </r>
       <r>    9.5335    0.0000 </r>
       <r>    9.7997    0.0000 </r>
       <r>    9.9856    0.0000 </r>
      </set>
      <set comment="kpoint 38">
       <r>   -5.0467    1.0000 </r>
       <r>   -4.4436    1.0000 </r>
       <r>   -3.6276    1.0000 </r>
       <r>   -3.2240    1.0000 </r>
       <r>   -0.8892    1.0000 </r>
       <r>   -0.5363    1.0000 </r>
       <r>    0.5622    1.0000 </r>
       <r>    1.3120    1.0000 </r>
       <r>    1.5791    1.0000 </r>
       <r>    1.8063    1.0000 </r>
       <r>    2.5599    1.0000 </r>
       <r>    3.0305    1.0000 </r>
       <r>    3.3577    1.0000 </r>
       <r>    3.5417    1.0000 </r>
       <r>    4.0460    1.0000 </r>
       <r>    4.6641    1.0000 </r>
       <r>    7.6762    0.0000 </r>
       <r>    8.2130    0.0000 </r>
       <r>    8.6192    0.0000 </r>
       <r>    8.7817    0.0000 </r>
       <r>    8.8707    0.0000 </r>
       <r>    9.2107    0.0000 </r>
       <r>    9.4631    0.0000 </r>
       <r>    9.8933    0.0000 </r>
[...]
       <r>   -4.1177    1.0000 </r>
       <r>   -3.6987    1.0000 </r>
       <r>   -0.3904    1.0000 </r>
       <r>   -0.0268    1.0000 </r>
       <r>    0.0109    1.0000 </r>
       <r>    0.7643    1.0000 </r>
       <r>    1.7142    1.0000 </r>
       <r>    2.0860    1.0000 </r>
       <r>    2.1253    1.0000 </r>
       <r>    2.5224    1.0000 </r>
       <r>    3.8464    1.0000 </r>
       <r>    4.1771    1.0000 </r>
       <r>    4.2224    1.0000 </r>
       <r>    4.6480    1.0000 </r>
       <r>    7.5894    0.0000 </r>
       <r>    8.3188    0.0000 </r>
       <r>    8.3644    0.0000 </r>
       <r>    8.3930    0.0000 </r>
       <r>    9.4661    0.0000 </r>
       <r>    9.4996    0.0000 </r>
       <r>    9.8045    0.0000 </r>
       <r>    9.9112    0.0000 </r>
      </set>
      <set comment="kpoint 254">
       <r>   -5.0356    1.0000 </r>
       <r>   -4.4593    1.0000 </r>
       <r>   -3.6164    1.0000 </r>
       <r>   -3.2412    1.0000 </r>
       <r>   -0.8331    1.0000 </r>
       <r>   -0.5651    1.0000 </r>
       <r>    0.5125    1.0000 </r>
       <r>    1.3811    1.0000 </r>
       <r>    1.5176    1.0000 </r>
       <r>    1.8247    1.0000 </r>
       <r>    2.5947    1.0000 </r>
       <r>    3.0285    1.0000 </r>
       <r>    3.3851    1.0000 </r>
       <r>    3.4948    1.0000 </r>
       <r>    4.0494    1.0000 </r>
       <r>    4.6544    1.0000 </r>
       <r>    7.6043    0.0000 </r>
       <r>    8.2750    0.0000 </r>
       <r>    8.5792    0.0000 </r>
       <r>    8.8485    0.0000 </r>
       <r>    8.9170    0.0000 </r>
       <r>    9.1908    0.0000 </r>
       <r>    9.4222    0.0000 </r>
       <r>    9.8299    0.0000 </r>
      </set>
      <set comment="kpoint 255">
       <r>   -5.2751    1.0000 </r>
       <r>   -4.6925    1.0000 </r>
       <r>   -3.0110    1.0000 </r>
       <r>   -2.7550    1.0000 </r>
       <r>   -1.2317    1.0000 </r>
       <r>   -1.1060    1.0000 </r>
       <r>    0.9995    1.0000 </r>
       <r>    1.4812    1.0000 </r>
       <r>    1.6937    1.0000 </r>
       <r>    2.0428    1.0000 </r>
       <r>    2.7058    1.0000 </r>
       <r>    2.7969    1.0000 </r>
       <r>    3.1274    1.0000 </r>
       <r>    3.5168    1.0000 </r>
       <r>    3.8698    1.0000 </r>
       <r>    4.3566    1.0000 </r>
       <r>    7.3350    0.0000 </r>
       <r>    7.7315    0.0000 </r>
       <r>    8.0906    0.0000 </r>
       <r>    8.7855    0.0000 </r>
       <r>    9.1192    0.0000 </r>
       <r>    9.4587    0.0000 </r>
       <r>    9.5511    0.0000 </r>
       <r>    9.9701    0.0000 </r>
      </set>
      <set comment="kpoint 256">
       <r>   -5.3950    1.0000 </r>
       <r>   -4.8137    1.0000 </r>
       <r>   -2.4798    1.0000 </r>
       <r>   -2.2911    1.0000 </r>
       <r>   -1.6477    1.0000 </r>
       <r>   -1.5427    1.0000 </r>
       <r>    1.3350    1.0000 </r>
       <r>    1.6585    1.0000 </r>
       <r>    1.7271    1.0000 </r>
       <r>    2.1450    1.0000 </r>
       <r>    2.2480    1.0000 </r>
       <r>    2.5684    1.0000 </r>
       <r>    3.4882    1.0000 </r>
       <r>    3.5347    1.0000 </r>
       <r>    4.0188    1.0000 </r>
       <r>    4.0740    1.0000 </r>
       <r>    6.7482    0.0000 </r>
       <r>    7.1390    0.0000 </r>
       <r>    8.3285    0.0000 </r>
       <r>    8.8410    0.0000 </r>
       <r>    8.9932    0.0000 </r>
       <r>    9.2436    0.0000 </r>
       <r>    9.8580    0.0000 </r>
       <r>   10.0043    0.0000 </r>
      </set>
     </set>
    </set>
   </array>
  </eigenvalues>
  <separator name="orbital magnetization" >
   <v name="MAGDIPOLOUT">      0.00000000      0.00000000      0.00000000</v>
  </separator>
  <dos>
   <i name="efermi">      5.66305065 </i>
   <total>
    <array>
     <dimension dim="1">gridpoints</dimension>
     <dimension dim="2">spin</dimension>
     <field>energy</field>
     <field>total</field>
     <field>integrated</field>
     <set>
      <set comment="spin 1">
       <r>    -6.9875     0.0000     0.0000 </r>
       <r>    -6.9274     0.0000     0.0000 </r>
       <r>    -6.8672     0.0000     0.0000 </r>
       <r>    -6.8071     0.0000     0.0000 </r>
       <r>    -6.7470     0.0000     0.0000 </r>
       <r>    -6.6868     0.0000     0.0000 </r>
       <r>    -6.6267     0.0000     0.0000 </r>
       <r>    -6.5665     0.0000     0.0000 </r>
       <r>    -6.5064     0.0000     0.0000 </r>
       <r>    -6.4463     0.0000     0.0000 </r>
       <r>    -6.3861     0.0000     0.0000 </r>
       <r>    -6.3260     0.0000     0.0000 </r>
       <r>    -6.2659     0.0000     0.0000 </r>
       <r>    -6.2057     0.0000     0.0000 </r>
       <r>    -6.1456     0.5173     0.0311 </r>
       <r>    -6.0855     0.0000     0.0313 </r>
       <r>    -6.0253     1.6296     0.1292 </r>
       <r>    -5.9652    -0.0706     0.1250 </r>
       <r>    -5.9051     0.4607     0.1527 </r>
       <r>    -5.8449     1.0982     0.2187 </r>
       <r>    -5.7848    -0.0517     0.2156 </r>
       <r>    -5.7246     2.1304     0.3437 </r>
       <r>    -5.6645     0.0061     0.3441 </r>
       <r>    -5.6044     3.1117     0.5312 </r>
       <r>    -5.5442     0.0023     0.5314 </r>
       <r>    -5.4841     1.5560     0.6250 </r>
       <r>    -5.4240    -0.0070     0.6246 </r>
       <r>    -5.3638     3.1362     0.8132 </r>
       <r>    -5.3037    -0.0142     0.8125 </r>
       <r>    -5.2436     4.4910     1.0825 </r>
       <r>    -5.1834     0.1792     1.0935 </r>
       <r>    -5.1233     1.4356     1.1798 </r>
       <r>    -5.0631     0.1225     1.1872 </r>
       <r>    -5.0030     3.3429     1.3882 </r>
       <r>    -4.9429     0.4772     1.4170 </r>
       <r>    -4.8827     2.8476     1.5883 </r>
       <r>    -4.8226     0.6703     1.6287 </r>
       <r>    -4.7625     0.9784     1.6876 </r>
       <r>    -4.7023     2.3633     1.8297 </r>
       <r>    -4.6422     3.9316     2.0663 </r>
       <r>    -4.5821     1.8847     2.1797 </r>
       <r>    -4.5219     1.5294     2.2717 </r>
       <r>    -4.4618     1.6433     2.3705 </r>
       <r>    -4.4016     3.1553     2.5603 </r>
       <r>    -4.3415     2.6529     2.7199 </r>
       <r>    -4.2814     0.3717     2.7423 </r>
       <r>    -4.2212     1.8431     2.8531 </r>
       <r>    -4.1611     3.9550     3.0910 </r>
       <r>    -4.1010     3.0442     3.2742 </r>
       <r>    -4.0408     4.2044     3.5271 </r>
       <r>    -3.9807     3.0581     3.7111 </r>
       <r>    -3.9206     2.8666     3.8836 </r>
       <r>    -3.8604     2.0934     4.0095 </r>
       <r>    -3.8003     2.1377     4.1381 </r>
       <r>    -3.7401     1.8716     4.2507 </r>
       <r>    -3.6800     4.1282     4.4990 </r>
       <r>    -3.6199     5.4735     4.8282 </r>
       <r>    -3.5597     4.8589     5.1204 </r>
       <r>    -3.4996     0.8704     5.1728 </r>
       <r>    -3.4395     2.0232     5.2945 </r>
       <r>    -3.3793     1.6397     5.3932 </r>
       <r>    -3.3192     3.1588     5.5831 </r>
       <r>    -3.2591     3.5512     5.7968 </r>
       <r>    -3.1989     5.6169     6.1346 </r>
       <r>    -3.1388     4.3549     6.3967 </r>
       <r>    -3.0787     1.9410     6.5135 </r>
       <r>    -3.0185     2.2354     6.6480 </r>
       <r>    -2.9584     1.9479     6.7652 </r>
       <r>    -2.8982     1.0039     6.8256 </r>
       <r>    -2.8381     0.8224     6.8750 </r>
       <r>    -2.7780     0.5781     6.9098 </r>
       <r>    -2.7178     2.3431     7.0507 </r>
       <r>    -2.6577     1.2840     7.1280 </r>
       <r>    -2.5976     2.4305     7.2742 </r>
       <r>    -2.5374     3.6816     7.4957 </r>
       <r>    -2.4773     2.7961     7.6639 </r>
       <r>    -2.4172     2.3565     7.8057 </r>
       <r>    -2.3570     1.8953     7.9197 </r>
       <r>    -2.2969     0.8246     7.9693 </r>
       <r>    -2.2367     0.5180     8.0005 </r>
       <r>    -2.1766    -0.0091     8.0000 </r>
       <r>    -2.1165     0.0000     8.0000 </r>
       <r>    -2.0563     0.0000     8.0000 </r>
       <r>    -1.9962     0.0000     8.0000 </r>
       <r>    -1.9361     0.0000     8.0000 </r>
       <r>    -1.8759     0.0000     8.0000 </r>
       <r>    -1.8158     0.0000     8.0000 </r>
       <r>    -1.7557     0.2655     8.0160 </r>
       <r>    -1.6955     0.7328     8.0600 </r>
       <r>    -1.6354     3.2854     8.2576 </r>
       <r>    -1.5752     3.4721     8.4665 </r>
       <r>    -1.5151     3.0829     8.6520 </r>
       <r>    -1.4550     3.7205     8.8759 </r>
       <r>    -1.3948     0.5629     8.9098 </r>
       <r>    -1.3347     0.8450     8.9606 </r>
       <r>    -1.2746     2.2918     9.0984 </r>
       <r>    -1.2144     2.1798     9.2296 </r>
       <r>    -1.1543     4.2361     9.4843 </r>
       <r>    -1.0942     5.6579     9.8246 </r>
       <r>    -1.0340     3.4044    10.0296 </r>
       <r>    -0.9739     4.8460    10.3210 </r>
       <r>    -0.9138     4.7787    10.6086 </r>
       <r>    -0.8536     6.5009    10.9997 </r>
       <r>    -0.7935     4.6584    11.2800 </r>
       <r>    -0.7333     3.2401    11.4749 </r>
       <r>    -0.6732     2.5900    11.6308 </r>
       <r>    -0.6131     1.7914    11.7385 </r>
       <r>    -0.5529     1.2415    11.8132 </r>
       <r>    -0.4928     4.3618    12.0755 </r>
       <r>    -0.4327     5.0190    12.3775 </r>
       <r>    -0.3725     1.7671    12.4838 </r>
       <r>    -0.3124     1.5580    12.5776 </r>
       <r>    -0.2523     0.7817    12.6246 </r>
       <r>    -0.1921     0.1000    12.6307 </r>
       <r>    -0.1320     1.2793    12.7076 </r>
       <r>    -0.0718     1.5920    12.8033 </r>
       <r>    -0.0117     1.3435    12.8842 </r>
       <r>     0.0484     3.3194    13.0839 </r>
       <r>     0.1086     3.2447    13.2791 </r>
       <r>     0.1687     2.3244    13.4190 </r>
       <r>     0.2288     2.8285    13.5892 </r>
       <r>     0.2890     1.1199    13.6567 </r>
       <r>     0.3491    -0.0124    13.6559 </r>
       <r>     0.4092     1.1881    13.7274 </r>
       <r>     0.4694     0.3757    13.7500 </r>
       <r>     0.5295     0.5397    13.7825 </r>
       <r>     0.5897     1.8904    13.8962 </r>
       <r>     0.6498     2.5188    14.0477 </r>
       <r>     0.7099     2.4237    14.1935 </r>
       <r>     0.7701     1.7114    14.2966 </r>
       <r>     0.8302     0.7840    14.3437 </r>
       <r>     0.8903     0.0000    14.3438 </r>
       <r>     0.9505     0.0004    14.3438 </r>
       <r>     1.0106     0.6238    14.3813 </r>
       <r>     1.0707     1.2877    14.4587 </r>
       <r>     1.1309     0.8932    14.5124 </r>
       <r>     1.1910     0.8270    14.5622 </r>
       <r>     1.2511     1.1307    14.6302 </r>
       <r>     1.3113     2.2943    14.7682 </r>
       <r>     1.3714     2.5710    14.9228 </r>
       <r>     1.4316     3.6477    15.1422 </r>
       <r>     1.4917     4.6769    15.4235 </r>
       <r>     1.5518     3.6061    15.6405 </r>
       <r>     1.6120     1.8036    15.7491 </r>
       <r>     1.6721     3.7955    15.9774 </r>
       <r>     1.7322     4.0311    16.2200 </r>
       <r>     1.7924     2.9540    16.3977 </r>
       <r>     1.8525     6.7325    16.8027 </r>
       <r>     1.9126     5.4995    17.1336 </r>
       <r>     1.9728     4.3774    17.3970 </r>
       <r>     2.0329     4.5846    17.6728 </r>
       <r>     2.0931     3.7568    17.8988 </r>
       <r>     2.1532     3.0643    18.0831 </r>
       <r>     2.2133     4.1982    18.3356 </r>
       <r>     2.2735     4.9642    18.6342 </r>
       <r>     2.3336     4.9742    18.9337 </r>
       <r>     2.3937     3.9343    19.1704 </r>
       <r>     2.4539     3.0038    19.3511 </r>
       <r>     2.5140     4.0290    19.5935 </r>
       <r>     2.5741     6.4840    19.9836 </r>
       <r>     2.6343     4.6243    20.2619 </r>
       <r>     2.6944     5.9002    20.6168 </r>
       <r>     2.7546     5.8330    20.9678 </r>
       <r>     2.8147     5.2896    21.2860 </r>
       <r>     2.8748     6.6773    21.6877 </r>
       <r>     2.9350     5.2704    22.0047 </r>
       <r>     2.9951     3.5290    22.2170 </r>
       <r>     3.0552     6.4497    22.6049 </r>
       <r>     3.1154     8.6319    23.1242 </r>
       <r>     3.1755     5.9542    23.4824 </r>
       <r>     3.2356     5.4586    23.8108 </r>
       <r>     3.2958     5.8996    24.1657 </r>
       <r>     3.3559     3.0886    24.3517 </r>
       <r>     3.4161     4.1291    24.6001 </r>
       <r>     3.4762     5.9358    24.9572 </r>
       <r>     3.5363     7.8405    25.4289 </r>
       <r>     3.5965     7.5864    25.8853 </r>
       <r>     3.6566     7.1128    26.3134 </r>
       <r>     3.7167     3.7042    26.5363 </r>
       <r>     3.7769     3.8337    26.7670 </r>
       <r>     3.8370     3.8834    27.0006 </r>
       <r>     3.8971     3.6865    27.2224 </r>
       <r>     3.9573     2.5110    27.3734 </r>
       <r>     4.0174     5.4940    27.7038 </r>
       <r>     4.0775     6.8897    28.1183 </r>
       <r>     4.1377     5.3275    28.4389 </r>
       <r>     4.1978     4.0690    28.6837 </r>
       <r>     4.2580     5.5929    29.0202 </r>
       <r>     4.3181     4.0345    29.2629 </r>
       <r>     4.3782     4.1863    29.5147 </r>
       <r>     4.4384     3.2441    29.7100 </r>
       <r>     4.4985     3.2369    29.9047 </r>
       <r>     4.5586     1.5941    30.0007 </r>
       <r>     4.6188     3.9678    30.2393 </r>
       <r>     4.6789     7.0367    30.6625 </r>
       <r>     4.7390     4.3468    30.9241 </r>
       <r>     4.7992     2.2524    31.0597 </r>
       <r>     4.8593     1.4576    31.1474 </r>
       <r>     4.9195     0.3809    31.1703 </r>
       <r>     4.9796     1.0875    31.2357 </r>
       <r>     5.0397     2.1956    31.3678 </r>
       <r>     5.0999     2.4766    31.5168 </r>
       <r>     5.1600     2.3188    31.6562 </r>
       <r>     5.2201     1.4055    31.7408 </r>
       <r>     5.2803     1.0003    31.8010 </r>
       <r>     5.3404     0.5856    31.8362 </r>
       <r>     5.4005     0.5705    31.8705 </r>
       <r>     5.4607     0.7957    31.9183 </r>
       <r>     5.5208     0.7072    31.9609 </r>
       <r>     5.5810     0.2605    31.9766 </r>
       <r>     5.6411     0.1043    31.9828 </r>
       <r>     5.7012     0.2854    32.0000 </r>
       <r>     5.7614     0.0000    32.0000 </r>
       <r>     5.8215     0.0000    32.0000 </r>
       <r>     5.8816     0.0000    32.0000 </r>
       <r>     5.9418     0.0000    32.0000 </r>
       <r>     6.0019     0.0000    32.0000 </r>
       <r>     6.0620     0.0000    32.0000 </r>
       <r>     6.1222     0.0000    32.0000 </r>
       <r>     6.1823     0.1199    32.0072 </r>
       <r>     6.2424     0.3995    32.0312 </r>
       <r>     6.3026     0.0093    32.0318 </r>
       <r>     6.3627     0.8973    32.0858 </r>
       <r>     6.4229     1.3011    32.1640 </r>
       <r>     6.4830     0.5115    32.1948 </r>
       <r>     6.5431     1.8180    32.3042 </r>
       <r>     6.6033     0.7094    32.3469 </r>
       <r>     6.6634     1.3808    32.4299 </r>
       <r>     6.7235     1.4151    32.5151 </r>
       <r>     6.7837     2.7459    32.6802 </r>
       <r>     6.8438     1.9022    32.7947 </r>
       <r>     6.9039     1.6894    32.8963 </r>
       <r>     6.9641     1.8861    33.0098 </r>
       <r>     7.0242     2.6088    33.1667 </r>
       <r>     7.0844     3.5793    33.3821 </r>
       <r>     7.1445     5.0519    33.6860 </r>
       <r>     7.2046     2.5912    33.8419 </r>
       <r>     7.2648     2.0706    33.9665 </r>
       <r>     7.3249     1.7116    34.0694 </r>
       <r>     7.3850     4.2097    34.3226 </r>
       <r>     7.4452     5.1469    34.6323 </r>
       <r>     7.5053     4.1161    34.8799 </r>
       <r>     7.5654     2.7018    35.0427 </r>
       <r>     7.6256     4.1447    35.2920 </r>
       <r>     7.6857     4.1713    35.5430 </r>
       <r>     7.7459     9.0585    36.0879 </r>
       <r>     7.8060     8.1132    36.5761 </r>
       <r>     7.8661     6.9877    36.9966 </r>
       <r>     7.9263     6.8734    37.4100 </r>
       <r>     7.9864     3.6554    37.6299 </r>
       <r>     8.0465     5.0064    37.9312 </r>
       <r>     8.1067     6.5422    38.3248 </r>
       <r>     8.1668     4.5738    38.6000 </r>
       <r>     8.2269     3.8966    38.8344 </r>
       <r>     8.2871     4.8645    39.1270 </r>
       <r>     8.3472     7.6280    39.5858 </r>
       <r>     8.4073     5.0543    39.8900 </r>
       <r>     8.4675     1.7542    39.9956 </r>
       <r>     8.5276     3.5073    40.2066 </r>
       <r>     8.5878     5.5167    40.5385 </r>
       <r>     8.6479     4.1672    40.7892 </r>
       <r>     8.7080     3.4395    40.9962 </r>
       <r>     8.7682     4.8181    41.2860 </r>
       <r>     8.8283     7.6179    41.7442 </r>
       <r>     8.8884     9.5330    42.3176 </r>
       <r>     8.9486     8.2888    42.8163 </r>
       <r>     9.0087     8.2669    43.3137 </r>
       <r>     9.0688     5.9862    43.6739 </r>
       <r>     9.1290     5.9031    44.0290 </r>
       <r>     9.1891     3.1233    44.2169 </r>
       <r>     9.2493     4.9314    44.5135 </r>
       <r>     9.3094     4.5861    44.7895 </r>
       <r>     9.3695     6.7726    45.1968 </r>
       <r>     9.4297     6.7198    45.6011 </r>
       <r>     9.4898     6.3741    45.9845 </r>
       <r>     9.5499     5.5340    46.3176 </r>
       <r>     9.6101     3.9328    46.5543 </r>
       <r>     9.6702     1.9227    46.6700 </r>
       <r>     9.7303     2.2161    46.8033 </r>
       <r>     9.7905     3.3725    47.0062 </r>
       <r>     9.8506     3.6119    47.2234 </r>
       <r>     9.9108     3.1485    47.4129 </r>
       <r>     9.9709     2.1466    47.5421 </r>
       <r>    10.0310     3.9762    47.7813 </r>
       <r>    10.0912     2.3757    47.9243 </r>
       <r>    10.1513     0.6117    47.9611 </r>
       <r>    10.2114     0.5178    47.9922 </r>
       <r>    10.2716     0.1294    48.0000 </r>
       <r>    10.3317     0.0000    48.0000 </r>
       <r>    10.3918     0.0000    48.0000 </r>
       <r>    10.4520     0.0000    48.0000 </r>
       <r>    10.5121     0.0000    48.0000 </r>
       <r>    10.5723     0.0000    48.0000 </r>
       <r>    10.6324     0.0000    48.0000 </r>
       <r>    10.6925     0.0000    48.0000 </r>
       <r>    10.7527     0.0000    48.0000 </r>
       <r>    10.8128     0.0000    48.0000 </r>
       <r>    10.8729     0.0000    48.0000 </r>
       <r>    10.9331     0.0000    48.0000 </r>
       <r>    10.9932     0.0000    48.0000 </r>
       <r>    11.0533     0.0000    48.0000 </r>
      </set>
     </set>
    </array>
   </total>
  </dos>
 </calculation>
 <structure name="finalpos" >
  <crystal>
   <varray name="basis" >
    <v>       5.46906415       0.00000000       0.00000000 </v>
    <v>       0.00000000       5.46906415       0.00000000 </v>
    <v>       0.00000000       0.00000000       5.46906415 </v>
   </varray>
   <i name="volume">    163.58333295 </i>
   <varray name="rec_basis" >
    <v>       0.18284664       0.00000000       0.00000000 </v>
    <v>       0.00000000       0.18284664       0.00000000 </v>
    <v>       0.00000000       0.00000000       0.18284664 </v>
   </varray>
  </crystal>
  <varray name="positions" >
   <v>       0.14260907       0.01521221       0.09094955 </v>
   <v>       0.39797788       0.25173484       0.34031741 </v>
   <v>       0.63806931       0.51485611       0.09310223 </v>
   <v>       0.91177905       0.73008172       0.33007293 </v>
   <v>       0.65688580       0.98680223       0.58337686 </v>
   <v>       0.88333466       0.26685908       0.84897604 </v>
   <v>       0.15762853       0.51075252       0.59372021 </v>
   <v>       0.39483821       0.76069524       0.84758339 </v>
  </varray>
 </structure>
</modeling>
