<?xml version="1.0" encoding="ISO-8859-1"?>
<modeling>
 <generator>
  <i name="program" type="string">vasp </i>
  <i name="version" type="string">5.4.1  </i>
  <i name="subversion" type="string">24Jun15 (build Jul  8 2015 13:29:37) complex                          parallel </i>
  <i name="platform" type="string">FX10FRT </i>
  <i name="date" type="string">2016 02 20 </i>
  <i name="time" type="string">07:13:00 </i>
 </generator>
 <incar>
  <i type="string" name="PREC">accurate</i>
  <i type="string" name="ALGO"> Normal</i>
  <i type="int" name="ISPIN">     1</i>
  <i type="int" name="IBRION">    -1</i>
  <i name="EDIFF">      0.00010000</i>
  <i type="int" name="NSW">     0</i>
  <i type="int" name="ISIF">     2</i>
  <i name="ENCUT">    400.00000000</i>
  <i type="int" name="ISMEAR">     2</i>
  <i name="SIGMA">      0.10000000</i>
  <i type="int" name="NWRITE">     1</i>
  <v type="int" name="KPOINT_BSE">    -1     0     0     0</v>
 </incar>
 <kpoints>
  <generation param="Monkhorst-Pack">
   <v type="int" name="divisions">      13       13       13 </v>
   <v name="usershift">      0.00000000       0.00000000       0.00000000 </v>
   <v name="genvec1">      0.07692308       0.00000000       0.00000000 </v>
   <v name="genvec2">      0.00000000       0.07692308       0.00000000 </v>
   <v name="genvec3">      0.00000000       0.00000000       0.07692308 </v>
   <v name="shift">      0.00000000       0.00000000       0.00000000 </v>
  </generation>
  <varray name="kpointlist" >
   <v>       0.00000000       0.00000000       0.00000000 </v>
   <v>       0.07692308       0.00000000       0.00000000 </v>
   <v>       0.15384615       0.00000000       0.00000000 </v>
   <v>       0.23076923       0.00000000       0.00000000 </v>
   <v>       0.30769231       0.00000000       0.00000000 </v>
   <v>       0.38461538       0.00000000       0.00000000 </v>
   <v>       0.46153846       0.00000000       0.00000000 </v>
   <v>       0.07692308       0.07692308       0.00000000 </v>
   <v>       0.15384615       0.07692308       0.00000000 </v>
   <v>       0.23076923       0.07692308       0.00000000 </v>
   <v>       0.30769231       0.07692308       0.00000000 </v>
   <v>       0.38461538       0.07692308       0.00000000 </v>
   <v>       0.46153846       0.07692308       0.00000000 </v>
   <v>       0.15384615       0.15384615       0.00000000 </v>
   <v>       0.23076923       0.15384615       0.00000000 </v>
   <v>       0.30769231       0.15384615       0.00000000 </v>
   <v>       0.38461538       0.15384615       0.00000000 </v>
   <v>       0.46153846       0.15384615       0.00000000 </v>
   <v>       0.23076923       0.23076923       0.00000000 </v>
   <v>       0.30769231       0.23076923       0.00000000 </v>
   <v>       0.38461538       0.23076923       0.00000000 </v>
   <v>       0.46153846       0.23076923       0.00000000 </v>
   <v>       0.30769231       0.30769231       0.00000000 </v>
   <v>       0.38461538       0.30769231       0.00000000 </v>
   <v>       0.46153846       0.30769231       0.00000000 </v>
   <v>       0.38461538       0.38461538       0.00000000 </v>
   <v>       0.46153846       0.38461538       0.00000000 </v>
   <v>       0.46153846       0.46153846       0.00000000 </v>
   <v>       0.07692308       0.07692308       0.07692308 </v>
   <v>       0.15384615       0.07692308       0.07692308 </v>
   <v>       0.23076923       0.07692308       0.07692308 </v>
   <v>       0.30769231       0.07692308       0.07692308 </v>
   <v>       0.38461538       0.07692308       0.07692308 </v>
   <v>       0.46153846       0.07692308       0.07692308 </v>
   <v>       0.15384615       0.15384615       0.07692308 </v>
   <v>       0.23076923       0.15384615       0.07692308 </v>
   <v>       0.30769231       0.15384615       0.07692308 </v>
   <v>       0.38461538       0.15384615       0.07692308 </v>
   <v>       0.46153846       0.15384615       0.07692308 </v>
   <v>       0.23076923       0.23076923       0.07692308 </v>
   <v>       0.30769231       0.23076923       0.07692308 </v>
   <v>       0.38461538       0.23076923       0.07692308 </v>
   <v>       0.46153846       0.23076923       0.07692308 </v>
   <v>       0.30769231       0.30769231       0.07692308 </v>
   <v>       0.38461538       0.30769231       0.07692308 </v>
   <v>       0.46153846       0.30769231       0.07692308 </v>
   <v>       0.38461538       0.38461538       0.07692308 </v>
   <v>       0.46153846       0.38461538       0.07692308 </v>
   <v>       0.46153846       0.46153846       0.07692308 </v>
   <v>       0.15384615       0.15384615       0.15384615 </v>
   <v>       0.23076923       0.15384615       0.15384615 </v>
   <v>       0.30769231       0.15384615       0.15384615 </v>
   <v>       0.38461538       0.15384615       0.15384615 </v>
   <v>       0.46153846       0.15384615       0.15384615 </v>
   <v>       0.23076923       0.23076923       0.15384615 </v>
   <v>       0.30769231       0.23076923       0.15384615 </v>
   <v>       0.38461538       0.23076923       0.15384615 </v>
   <v>       0.46153846       0.23076923       0.15384615 </v>
   <v>       0.30769231       0.30769231       0.15384615 </v>
   <v>       0.38461538       0.30769231       0.15384615 </v>
   <v>       0.46153846       0.30769231       0.15384615 </v>
   <v>       0.38461538       0.38461538       0.15384615 </v>
   <v>       0.46153846       0.38461538       0.15384615 </v>
   <v>       0.46153846       0.46153846       0.15384615 </v>
   <v>       0.23076923       0.23076923       0.23076923 </v>
   <v>       0.30769231       0.23076923       0.23076923 </v>
   <v>       0.38461538       0.23076923       0.23076923 </v>
   <v>       0.46153846       0.23076923       0.23076923 </v>
   <v>       0.30769231       0.30769231       0.23076923 </v>
   <v>       0.38461538       0.30769231       0.23076923 </v>
   <v>       0.46153846       0.30769231       0.23076923 </v>
   <v>       0.38461538       0.38461538       0.23076923 </v>
   <v>       0.46153846       0.38461538       0.23076923 </v>
   <v>       0.46153846       0.46153846       0.23076923 </v>
   <v>       0.30769231       0.30769231       0.30769231 </v>
   <v>       0.38461538       0.30769231       0.30769231 </v>
   <v>       0.46153846       0.30769231       0.30769231 </v>
   <v>       0.38461538       0.38461538       0.30769231 </v>
   <v>       0.46153846       0.38461538       0.30769231 </v>
   <v>       0.46153846       0.46153846       0.30769231 </v>
   <v>       0.38461538       0.38461538       0.38461538 </v>
   <v>       0.46153846       0.38461538       0.38461538 </v>
   <v>       0.46153846       0.46153846       0.38461538 </v>
   <v>       0.46153846       0.46153846       0.46153846 </v>
  </varray>
  <varray name="weights" >
   <v>       0.00045517 </v>
   <v>       0.00273100 </v>
   <v>       0.00273100 </v>
   <v>       0.00273100 </v>
   <v>       0.00273100 </v>
   <v>       0.00273100 </v>
   <v>       0.00273100 </v>
   <v>       0.00546199 </v>
   <v>       0.01092399 </v>
   <v>       0.01092399 </v>
   <v>       0.01092399 </v>
   <v>       0.01092399 </v>
   <v>       0.01092399 </v>
   <v>       0.00546199 </v>
   <v>       0.01092399 </v>
   <v>       0.01092399 </v>
   <v>       0.01092399 </v>
   <v>       0.01092399 </v>
   <v>       0.00546199 </v>
   <v>       0.01092399 </v>
   <v>       0.01092399 </v>
   <v>       0.01092399 </v>
   <v>       0.00546199 </v>
   <v>       0.01092399 </v>
   <v>       0.01092399 </v>
   <v>       0.00546199 </v>
   <v>       0.01092399 </v>
   <v>       0.00546199 </v>
   <v>       0.00364133 </v>
   <v>       0.01092399 </v>
   <v>       0.01092399 </v>
   <v>       0.01092399 </v>
   <v>       0.01092399 </v>
   <v>       0.01092399 </v>
   <v>       0.01092399 </v>
   <v>       0.02184797 </v>
   <v>       0.02184797 </v>
   <v>       0.02184797 </v>
   <v>       0.02184797 </v>
   <v>       0.01092399 </v>
   <v>       0.02184797 </v>
   <v>       0.02184797 </v>
   <v>       0.02184797 </v>
   <v>       0.01092399 </v>
   <v>       0.02184797 </v>
   <v>       0.02184797 </v>
   <v>       0.01092399 </v>
   <v>       0.02184797 </v>
   <v>       0.01092399 </v>
   <v>       0.00364133 </v>
   <v>       0.01092399 </v>
   <v>       0.01092399 </v>
   <v>       0.01092399 </v>
   <v>       0.01092399 </v>
   <v>       0.01092399 </v>
   <v>       0.02184797 </v>
   <v>       0.02184797 </v>
   <v>       0.02184797 </v>
   <v>       0.01092399 </v>
   <v>       0.02184797 </v>
   <v>       0.02184797 </v>
   <v>       0.01092399 </v>
   <v>       0.02184797 </v>
   <v>       0.01092399 </v>
   <v>       0.00364133 </v>
   <v>       0.01092399 </v>
   <v>       0.01092399 </v>
   <v>       0.01092399 </v>
   <v>       0.01092399 </v>
   <v>       0.02184797 </v>
   <v>       0.02184797 </v>
   <v>       0.01092399 </v>
   <v>       0.02184797 </v>
   <v>       0.01092399 </v>
   <v>       0.00364133 </v>
   <v>       0.01092399 </v>
   <v>       0.01092399 </v>
   <v>       0.01092399 </v>
   <v>       0.02184797 </v>
   <v>       0.01092399 </v>
   <v>       0.00364133 </v>
   <v>       0.01092399 </v>
   <v>       0.01092399 </v>
   <v>       0.00364133 </v>
  </varray>
 </kpoints>
 <parameters>
  <separator name="general" >
   <i type="string" name="SYSTEM">unknown system</i>
   <i type="logical" name="LCOMPAT"> F  </i>
  </separator>
  <separator name="electronic" >
   <i type="string" name="PREC">accura</i>
   <i name="ENMAX">    400.00000000</i>
   <i name="ENAUG">    322.06900000</i>
   <i name="EDIFF">      0.00010000</i>
   <i type="int" name="IALGO">    38</i>
   <i type="int" name="IWAVPR">    10</i>
   <i type="int" name="NBANDS">    16</i>
   <i name="NELECT">     16.00000000</i>
   <i type="int" name="TURBO">     0</i>
   <i type="int" name="IRESTART">     0</i>
   <i type="int" name="NREBOOT">     0</i>
   <i type="int" name="NMIN">     0</i>
   <i name="EREF">      0.00000000</i>
   <separator name="electronic smearing" >
    <i type="int" name="ISMEAR">     2</i>
    <i name="SIGMA">      0.10000000</i>
    <i name="KSPACING">      0.50000000</i>
    <i type="logical" name="KGAMMA"> T  </i>
   </separator>
   <separator name="electronic projectors" >
    <i type="logical" name="LREAL"> F  </i>
    <v name="ROPT">      0.00000000</v>
    <i type="int" name="LMAXPAW">  -100</i>
    <i type="int" name="LMAXMIX">     2</i>
    <i type="logical" name="NLSPLINE"> F  </i>
   </separator>
   <separator name="electronic startup" >
    <i type="int" name="ISTART">     0</i>
    <i type="int" name="ICHARG">     2</i>
    <i type="int" name="INIWAV">     1</i>
   </separator>
   <separator name="electronic spin" >
    <i type="int" name="ISPIN">     1</i>
    <i type="logical" name="LNONCOLLINEAR"> F  </i>
    <v name="MAGMOM">      1.00000000      1.00000000      1.00000000      1.00000000</v>
    <i name="NUPDOWN">     -1.00000000</i>
    <i type="logical" name="LSORBIT"> F  </i>
    <v name="SAXIS">      0.00000000      0.00000000      1.00000000</v>
    <i type="logical" name="LSPIRAL"> F  </i>
    <v name="QSPIRAL">      0.00000000      0.00000000      0.00000000</v>
    <i type="logical" name="LZEROZ"> F  </i>
   </separator>
   <separator name="electronic exchange-correlation" >
    <i type="logical" name="LASPH"> F  </i>
    <i type="logical" name="LMETAGGA"> F  </i>
   </separator>
   <separator name="electronic convergence" >
    <i type="int" name="NELM">    60</i>
    <i type="int" name="NELMDL">    -5</i>
    <i type="int" name="NELMIN">     2</i>
    <i name="ENINI">    400.00000000</i>
    <separator name="electronic convergence detail" >
     <i type="logical" name="LDIAG"> T  </i>
     <i type="logical" name="LSUBROT"> F  </i>
     <i name="WEIMIN">      0.00000000</i>
     <i name="EBREAK">      0.00000156</i>
     <i name="DEPER">      0.30000000</i>
     <i type="int" name="NRMM">     4</i>
     <i name="TIME">      0.40000000</i>
    </separator>
   </separator>
   <separator name="electronic mixer" >
    <i name="AMIX">      0.40000000</i>
    <i name="BMIX">      1.00000000</i>
    <i name="AMIN">      0.10000000</i>
    <i name="AMIX_MAG">      1.60000000</i>
    <i name="BMIX_MAG">      1.00000000</i>
    <separator name="electronic mixer details" >
     <i type="int" name="IMIX">     4</i>
     <i type="logical" name="MIXFIRST"> F  </i>
     <i type="int" name="MAXMIX">   -45</i>
     <i name="WC">    100.00000000</i>
     <i type="int" name="INIMIX">     1</i>
     <i type="int" name="MIXPRE">     1</i>
     <i type="int" name="MREMOVE">     5</i>
    </separator>
   </separator>
   <separator name="electronic dipolcorrection" >
    <i type="logical" name="LDIPOL"> F  </i>
    <i type="logical" name="LMONO"> F  </i>
    <i type="int" name="IDIPOL">     0</i>
    <i name="EPSILON">      1.00000000</i>
    <v name="DIPOL">   -100.00000000   -100.00000000   -100.00000000</v>
    <i name="EFIELD">      0.00000000</i>
   </separator>
  </separator>
  <separator name="grids" >
   <i type="int" name="NGX">    28</i>
   <i type="int" name="NGY">    28</i>
   <i type="int" name="NGZ">    28</i>
   <i type="int" name="NGXF">    56</i>
   <i type="int" name="NGYF">    56</i>
   <i type="int" name="NGZF">    56</i>
   <i type="logical" name="ADDGRID"> F  </i>
  </separator>
  <separator name="ionic" >
   <i type="int" name="NSW">     0</i>
   <i type="int" name="IBRION">    -1</i>
   <i type="int" name="ISIF">     2</i>
   <i name="PSTRESS">      0.00000000</i>
   <i name="EDIFFG">      0.00100000</i>
   <i type="int" name="NFREE">     0</i>
   <i name="POTIM">      0.50000000</i>
   <i name="SMASS">     -3.00000000</i>
   <i name="SCALEE">      1.00000000</i>
  </separator>
  <separator name="ionic md" >
   <i name="TEBEG">      0.00010000</i>
   <i name="TEEND">      0.00010000</i>
   <i type="int" name="NBLOCK">     1</i>
   <i type="int" name="KBLOCK">     1</i>
   <i type="int" name="NPACO">   256</i>
   <i name="APACO">     16.00000000</i>
  </separator>
  <separator name="symmetry" >
   <i type="int" name="ISYM">     2</i>
   <i name="SYMPREC">      0.00001000</i>
  </separator>
  <separator name="dos" >
   <i type="logical" name="LORBIT"> F  </i>
   <v name="RWIGS">     -1.00000000</v>
   <i type="int" name="NEDOS">   301</i>
   <i name="EMIN">     10.00000000</i>
   <i name="EMAX">    -10.00000000</i>
   <i name="EFERMI">      0.00000000</i>
  </separator>
  <separator name="writing" >
   <i type="int" name="NWRITE">     1</i>
   <i type="logical" name="LWAVE"> T  </i>
   <i type="logical" name="LCHARG"> T  </i>
   <i type="logical" name="LPARD"> F  </i>
   <i type="logical" name="LVTOT"> F  </i>
   <i type="logical" name="LVHAR"> F  </i>
   <i type="logical" name="LELF"> F  </i>
   <i type="logical" name="LOPTICS"> F  </i>
   <v name="STM">      0.00000000      0.00000000      0.00000000      0.00000000      0.00000000      0.00000000      0.00000000</v>
  </separator>
  <separator name="performance" >
   <i type="int" name="NPAR">     8</i>
   <i type="int" name="NSIM">     4</i>
   <i type="int" name="NBLK">    -1</i>
   <i type="logical" name="LPLANE"> T  </i>
   <i type="logical" name="LSCALAPACK"> T  </i>
   <i type="logical" name="LSCAAWARE"> F  </i>
   <i type="logical" name="LSCALU"> F  </i>
   <i type="logical" name="LASYNC"> F  </i>
   <i type="logical" name="LORBITALREAL"> F  </i>
  </separator>
  <separator name="miscellaneous" >
   <i type="int" name="IDIOT">     3</i>
   <i type="logical" name="LMUSIC"> F  </i>
   <v name="POMASS">     28.08500000</v>
   <v name="DARWINR">      0.00000000</v>
   <v name="DARWINV">      1.00000000</v>
   <i type="logical" name="LCORR"> T  </i>
  </separator>
  <i type="logical" name="GGA_COMPAT"> T  </i>
  <i type="logical" name="LBERRY"> F  </i>
  <i type="int" name="ICORELEVEL">     0</i>
  <i type="logical" name="LDAU"> F  </i>
  <i type="int" name="I_CONSTRAINED_M">     0</i>
  <separator name="electronic exchange-correlation" >
   <i type="string" name="GGA">--</i>
   <i type="int" name="VOSKOWN">     0</i>
   <i type="logical" name="LHFCALC"> F  </i>
   <i type="string" name="PRECFOCK"></i>
   <i type="logical" name="LSYMGRAD"> F  </i>
   <i type="logical" name="LHFONE"> F  </i>
   <i type="logical" name="LRHFCALC"> F  </i>
   <i type="logical" name="LTHOMAS"> F  </i>
   <i type="logical" name="LMODELHF"> F  </i>
   <i name="ENCUT4O">     -1.00000000</i>
   <i type="int" name="EXXOEP">     0</i>
   <i type="int" name="FOURORBIT">     0</i>
   <i name="AEXX">      0.00000000</i>
   <i name="HFALPHA">      0.00000000</i>
   <i name="MCALPHA">      0.00000000</i>
   <i name="ALDAX">      1.00000000</i>
   <i name="AGGAX">      1.00000000</i>
   <i name="ALDAC">      1.00000000</i>
   <i name="AGGAC">      1.00000000</i>
   <i type="int" name="NKREDX">     1</i>
   <i type="int" name="NKREDY">     1</i>
   <i type="int" name="NKREDZ">     1</i>
   <i type="logical" name="SHIFTRED"> F  </i>
   <i type="logical" name="ODDONLY"> F  </i>
   <i type="logical" name="EVENONLY"> F  </i>
   <i type="int" name="LMAXFOCK">     0</i>
   <i type="int" name="NMAXFOCKAE">     0</i>
   <i type="logical" name="LFOCKAEDFT"> F  </i>
   <i name="HFSCREEN">      0.00000000</i>
   <i name="HFSCREENC">      0.00000000</i>
   <i type="int" name="NBANDSGWLOW">     0</i>
  </separator>
  <separator name="vdW DFT" >
   <i type="logical" name="LUSE_VDW"> F  </i>
   <i name="Zab_VDW">     -0.84910000</i>
   <i name="PARAM1">      0.12340000</i>
   <i name="PARAM2">      1.00000000</i>
   <i name="PARAM3">      0.00000000</i>
  </separator>
  <separator name="model GW" >
   <i type="int" name="MODEL_GW">     0</i>
   <i name="MODEL_EPS0">      8.67762394</i>
   <i name="MODEL_ALPHA">      1.00000000</i>
  </separator>
  <separator name="linear response parameters" >
   <i type="logical" name="LEPSILON"> F  </i>
   <i type="logical" name="LRPA"> F  </i>
   <i type="logical" name="LNABLA"> F  </i>
   <i type="logical" name="LVEL"> F  </i>
   <i type="int" name="KINTER">     0</i>
   <i name="CSHIFT">      0.10000000</i>
   <i name="OMEGAMAX">     -1.00000000</i>
   <i name="DEG_THRESHOLD">      0.00200000</i>
  </separator>
  <separator name="orbital magnetization" >
   <i type="logical" name="NUCIND"> F  </i>
   <v name="MAGPOS">      0.00000000      0.00000000      0.00000000</v>
   <i type="logical" name="LNICSALL"> T  </i>
   <i type="logical" name="ORBITALMAG"> F  </i>
   <i type="logical" name="LMAGBLOCH"> F  </i>
   <i type="logical" name="LCHIMAG"> F  </i>
   <i type="logical" name="LGAUGE"> T  </i>
   <i type="int" name="MAGATOM">     0</i>
   <v name="MAGDIPOL">      0.00000000      0.00000000      0.00000000</v>
   <v name="AVECCONST">      0.00000000      0.00000000      0.00000000</v>
  </separator>
  <separator name="response functions" >
   <i type="logical" name="LADDER"> F  </i>
   <i type="logical" name="LFXC"> F  </i>
   <i type="logical" name="LHARTREE"> T  </i>
   <i type="int" name="IBSE">     0</i>
   <v type="int" name="KPOINT">    -1     0     0     0</v>
   <i type="logical" name="LTCTE"> F  </i>
   <i type="logical" name="LTETE"> F  </i>
   <i type="logical" name="LTRIPLET"> F  </i>
   <i type="logical" name="LFXCEPS"> F  </i>
   <i type="logical" name="LFXHEG"> F  </i>
   <i type="int" name="NATURALO">     0</i>
   <i type="logical" name="L2ORDER"> F  </i>
   <i type="logical" name="LUSEW"> F  </i>
   <i name="ENCUTGW">     -2.00000000</i>
   <i name="ENCUTGWSOFT">     -2.00000000</i>
   <i name="ENCUTLF">     -1.00000000</i>
   <i type="int" name="LMAXMP2">    -1</i>
   <i name="SCISSOR">      0.00000000</i>
   <i type="int" name="NOMEGA">     0</i>
   <i type="int" name="NOMEGAR">     0</i>
   <i type="int" name="NBANDSGW">    -1</i>
   <i type="int" name="NBANDSO">    -1</i>
   <i type="int" name="NBANDSV">    -1</i>
   <i type="int" name="NELM">     1</i>
   <i type="int" name="NELMHF">     1</i>
   <i type="int" name="DIM">     3</i>
   <i type="int" name="ANTIRES">     0</i>
   <i name="OMEGAMAX">    -30.00000000</i>
   <i name="OMEGAMIN">    -30.00000000</i>
   <i name="OMEGATL">   -200.00000000</i>
   <i type="int" name="OMEGAGRID">     0</i>
   <i name="CSHIFT">     -0.10000000</i>
   <i type="logical" name="SELFENERGY"> F  </i>
   <i type="logical" name="LSPECTRAL"> F  </i>
   <i type="logical" name="LSPECTRALGW"> F  </i>
   <i type="logical" name="LSINGLES"> F  </i>
   <i type="logical" name="LFERMIGW"> F  </i>
   <i type="logical" name="ODDONLYGW"> F  </i>
   <i type="logical" name="EVENONLYGW"> F  </i>
   <i type="int" name="NKREDLFX">     1</i>
   <i type="int" name="NKREDLFY">     1</i>
   <i type="int" name="NKREDLFZ">     1</i>
   <i type="int" name="MAXMEM">  1800</i>
   <i type="int" name="TELESCOPE">     0</i>
   <i type="int" name="TAUPAR">     1</i>
   <i type="int" name="OMEGAPAR">    -1</i>
   <i name="LAMBDA">      1.00000000</i>
  </separator>
  <separator name="External order field" >
   <i name="OFIELD_KAPPA">      0.00000000</i>
   <v name="OFIELD_K">      0.00000000      0.00000000      0.00000000</v>
   <i name="OFIELD_Q6_NEAR">      0.00000000</i>
   <i name="OFIELD_Q6_FAR">      0.00000000</i>
   <i name="OFIELD_A">      0.00000000</i>
  </separator>
 </parameters>
 <atominfo>
  <atoms>       4 </atoms>
  <types>       1 </types>
  <array name="atoms" >
   <dimension dim="1">ion</dimension>
   <field type="string">element</field>
   <field type="int">atomtype</field>
   <set>
    <rc><c>Si</c><c>   1</c></rc>
    <rc><c>Si</c><c>   1</c></rc>
    <rc><c>Si</c><c>   1</c></rc>
    <rc><c>Si</c><c>   1</c></rc>
   </set>
  </array>
  <array name="atomtypes" >
   <dimension dim="1">type</dimension>
   <field type="int">atomspertype</field>
   <field type="string">element</field>
   <field>mass</field>
   <field>valence</field>
   <field type="string">pseudopotential</field>
   <set>
    <rc><c>   4</c><c>Si</c><c>     28.08500000</c><c>      4.00000000</c><c>  PAW_PBE Si 05Jan2001                  </c></rc>
   </set>
  </array>
 </atominfo>
 <structure name="initialpos" >
  <crystal>
   <varray name="basis" >
    <v>       3.86755521       0.00000000       0.00000000 </v>
    <v>       0.00000000       3.86755521       0.00000000 </v>
    <v>       0.00000000       0.00000000       3.86755521 </v>
   </varray>
   <i name="volume">     57.85082625 </i>
   <varray name="rec_basis" >
    <v>       0.25856127       0.00000000       0.00000000 </v>
    <v>       0.00000000       0.25856127       0.00000000 </v>
    <v>       0.00000000       0.00000000       0.25856127 </v>
   </varray>
  </crystal>
  <varray name="positions" >
   <v>       0.00000000       0.00000000       0.00000000 </v>
   <v>       0.50000000       0.50000000       0.00000000 </v>
   <v>       0.50000000       0.00000000       0.50000000 </v>
   <v>       0.00000000       0.50000000       0.50000000 </v>
  </varray>
 </structure>
 <calculation>
  <scstep>
   <time name="dav">    0.95    0.98</time>
   <time name="total">    1.00    1.05</time>
   <energy>
    <i name="alphaZ">      9.31032671 </i>
    <i name="ewald">   -546.25548325 </i>
    <i name="hartreedc">     -2.38913963 </i>
    <i name="XCdc">    -35.21958768 </i>
    <i name="pawpsdc">    352.49519846 </i>
    <i name="pawaedc">   -282.12207116 </i>
    <i name="eentropy">     -0.00216186 </i>
    <i name="bandstr">    105.43611095 </i>
    <i name="atom">    412.26298491 </i>
    <i name="e_fr_energy">     13.51617745 </i>
    <i name="e_wo_entrp">     13.51833931 </i>
    <i name="e_0_energy">     13.51671791 </i>
   </energy>
  </scstep>
  <scstep>
   <time name="dav">    1.18    1.19</time>
   <time name="total">    1.19    1.22</time>
   <energy>
    <i name="e_fr_energy">    -18.63501648 </i>
    <i name="e_wo_entrp">    -18.63556568 </i>
    <i name="e_0_energy">    -18.63515378 </i>
   </energy>
  </scstep>
  <scstep>
   <time name="dav">    1.09    1.10</time>
   <time name="total">    1.11    1.12</time>
   <energy>
    <i name="e_fr_energy">    -19.62158554 </i>
    <i name="e_wo_entrp">    -19.62191914 </i>
    <i name="e_0_energy">    -19.62166894 </i>
   </energy>
  </scstep>
  <scstep>
   <time name="dav">    1.11    1.12</time>
   <time name="total">    1.12    1.13</time>
   <energy>
    <i name="e_fr_energy">    -19.62658005 </i>
    <i name="e_wo_entrp">    -19.62692350 </i>
    <i name="e_0_energy">    -19.62666591 </i>
   </energy>
  </scstep>
  <scstep>
   <time name="dav">    1.08    1.10</time>
   <time name="total">    1.15    1.18</time>
   <energy>
    <i name="e_fr_energy">    -19.62661155 </i>
    <i name="e_wo_entrp">    -19.62695522 </i>
    <i name="e_0_energy">    -19.62669747 </i>
   </energy>
  </scstep>
  <scstep>
   <time name="dav">    1.04    1.04</time>
   <time name="total">    1.09    1.11</time>
   <energy>
    <i name="e_fr_energy">    -19.57532588 </i>
    <i name="e_wo_entrp">    -19.57576701 </i>
    <i name="e_0_energy">    -19.57543616 </i>
   </energy>
  </scstep>
  <scstep>
   <time name="dav">    1.01    1.00</time>
   <time name="total">    1.08    1.08</time>
   <energy>
    <i name="e_fr_energy">    -19.54613834 </i>
    <i name="e_wo_entrp">    -19.54666335 </i>
    <i name="e_0_energy">    -19.54626960 </i>
   </energy>
  </scstep>
  <scstep>
   <time name="dav">    1.14    1.14</time>
   <time name="total">    1.19    1.21</time>
   <energy>
    <i name="e_fr_energy">    -19.54594152 </i>
    <i name="e_wo_entrp">    -19.54646730 </i>
    <i name="e_0_energy">    -19.54607297 </i>
   </energy>
  </scstep>
  <scstep>
   <time name="dav">    0.76    0.76</time>
   <time name="total">    0.78    0.79</time>
   <energy>
    <i name="alphaZ">      9.31032671 </i>
    <i name="ewald">   -546.25548325 </i>
    <i name="hartreedc">     -1.78834695 </i>
    <i name="XCdc">    -35.00290031 </i>
    <i name="pawpsdc">   1185.88430989 </i>
    <i name="pawaedc">  -1115.54303319 </i>
    <i name="eentropy">      0.00052613 </i>
    <i name="bandstr">     71.58567342 </i>
    <i name="atom">    412.26298491 </i>
    <i name="e_fr_energy">    -19.54594263 </i>
    <i name="e_wo_entrp">    -19.54646877 </i>
    <i name="e_0_energy">    -19.54607417 </i>
   </energy>
  </scstep>
  <structure>
   <crystal>
    <varray name="basis" >
     <v>       3.86755521       0.00000000       0.00000000 </v>
     <v>       0.00000000       3.86755521       0.00000000 </v>
     <v>       0.00000000       0.00000000       3.86755521 </v>
    </varray>
    <i name="volume">     57.85082625 </i>
    <varray name="rec_basis" >
     <v>       0.25856127       0.00000000       0.00000000 </v>
     <v>       0.00000000       0.25856127       0.00000000 </v>
     <v>       0.00000000       0.00000000       0.25856127 </v>
    </varray>
   </crystal>
   <varray name="positions" >
    <v>       0.00000000       0.00000000       0.00000000 </v>
    <v>       0.50000000       0.50000000       0.00000000 </v>
    <v>       0.50000000       0.00000000       0.50000000 </v>
    <v>       0.00000000       0.50000000       0.50000000 </v>
   </varray>
  </structure>
  <varray name="forces" >
   <v>       0.00000000       0.00000000       0.00000000 </v>
   <v>       0.00000000       0.00000000       0.00000000 </v>
   <v>       0.00000000       0.00000000       0.00000000 </v>
   <v>       0.00000000       0.00000000       0.00000000 </v>
  </varray>
  <varray name="stress" >
   <v>       1.27957531       0.00000000       0.00000000 </v>
   <v>       0.00000000       1.27957531       0.00000000 </v>
   <v>       0.00000000       0.00000000       1.27957531 </v>
  </varray>
  <energy>
   <i name="e_fr_energy">    -19.54594263 </i>
   <i name="e_wo_entrp">    -19.54607417 </i>
   <i name="e_0_energy">      0.00052613 </i>
  </energy>
  <time name="totalsc">   10.74   10.96</time>
  <eigenvalues>
   <array>
    <dimension dim="1">band</dimension>
    <dimension dim="2">kpoint</dimension>
    <dimension dim="3">spin</dimension>
    <field>eigene</field>
    <field>occ</field>
    <set>
     <set comment="spin 1">
      <set comment="kpoint 1">
       <r>   -4.2813    1.0000 </r>
       <r>    4.8184    1.0000 </r>
       <r>    4.8184    1.0000 </r>
       <r>    4.8184    1.0000 </r>
       <r>    5.6621    1.0000 </r>
       <r>    5.6621    1.0000 </r>
       <r>    5.6621    1.0000 </r>
       <r>   13.3703    0.0000 </r>
       <r>   13.3703    0.0000 </r>
       <r>   13.3703    0.0000 </r>
       <r>   13.3703    0.0000 </r>
       <r>   13.3703    0.0000 </r>
       <r>   13.3703    0.0000 </r>
       <r>   14.5801    0.0000 </r>
       <r>   14.5801    0.0000 </r>
       <r>   14.5801    0.0000 </r>
      </set>
      <set comment="kpoint 2">
       <r>   -4.2239    1.0000 </r>
       <r>    3.7995    1.0000 </r>
       <r>    4.8725    1.0000 </r>
       <r>    4.8725    1.0000 </r>
       <r>    5.7161    1.0000 </r>
       <r>    5.7161    1.0000 </r>
       <r>    6.7790    1.0000 </r>
       <r>   12.5016    0.0000 </r>
       <r>   12.5016    0.0000 </r>
       <r>   12.9576    0.0000 </r>
       <r>   12.9576    0.0000 </r>
       <r>   13.4205    0.0000 </r>
       <r>   13.4205    0.0000 </r>
       <r>   14.6369    0.0000 </r>
       <r>   15.5533    0.0000 </r>
       <r>   15.5533    0.0000 </r>
      </set>
      <set comment="kpoint 3">
       <r>   -4.0515    1.0000 </r>
       <r>    2.5510    1.0000 </r>
       <r>    5.0345    1.0000 </r>
       <r>    5.0345    1.0000 </r>
       <r>    5.8771    1.0000 </r>
       <r>    5.8771    1.0000 </r>
       <r>    8.3201    1.0000 </r>
       <r>   11.3192    0.0000 </r>
       <r>   11.3192    0.0000 </r>
       <r>   12.0870    0.0000 </r>
       <r>   12.0870    0.0000 </r>
       <r>   13.5713    0.0000 </r>
       <r>   13.5713    0.0000 </r>
       <r>   14.8071    0.0000 </r>
       <r>   17.0486    0.0000 </r>
       <r>   17.0491    0.0000 </r>
      </set>
      <set comment="kpoint 4">
       <r>   -3.7645    1.0000 </r>
       <r>    1.3867    1.0000 </r>
       <r>    5.3046    1.0000 </r>
       <r>    5.3046    1.0000 </r>
       <r>    6.1426    1.0000 </r>
       <r>    6.1426    1.0000 </r>
       <r>    9.9669    0.9982 </r>
       <r>   10.2044    0.6823 </r>
       <r>   10.2044    0.6823 </r>
       <r>   11.1242    0.0000 </r>
       <r>   11.1242    0.0000 </r>
       <r>   13.8224    0.0000 </r>
       <r>   13.8224    0.0000 </r>
       <r>   15.0898    0.0000 </r>
       <r>   17.4749    0.0000 </r>
       <r>   18.3477    0.0000 </r>
      </set>
      <set comment="kpoint 5">
       <r>   -3.3634    1.0000 </r>
       <r>    0.3234    1.0000 </r>
       <r>    5.6828    1.0000 </r>
       <r>    5.6828    1.0000 </r>
       <r>    6.5049    1.0000 </r>
       <r>    6.5049    1.0000 </r>
       <r>    9.1867    1.0000 </r>
       <r>    9.1867    1.0000 </r>
       <r>   10.1989    0.7357 </r>
       <r>   10.1989    0.7357 </r>
       <r>   11.6932    0.0000 </r>
       <r>   14.1737    0.0000 </r>
       <r>   14.1737    0.0000 </r>
       <r>   15.4850    0.0000 </r>
       <r>   17.4132    0.0000 </r>
       <r>   17.4132    0.0000 </r>
      </set>
      <set comment="kpoint 6">
       <r>   -2.8489    1.0000 </r>
       <r>   -0.6339    1.0000 </r>
       <r>    6.1688    1.0000 </r>
       <r>    6.1688    1.0000 </r>
       <r>    6.9423    1.0000 </r>
       <r>    6.9423    1.0000 </r>
       <r>    8.2724    1.0000 </r>
       <r>    8.2724    1.0000 </r>
       <r>    9.3735    1.0000 </r>
       <r>    9.3735    1.0000 </r>
       <r>   13.4736    0.0000 </r>
       <r>   14.6249    0.0000 </r>
       <r>   14.6249    0.0000 </r>
       <r>   15.9908    0.0000 </r>
       <r>   16.5710    0.0000 </r>
       <r>   16.5710    0.0000 </r>
      </set>
      <set comment="kpoint 7">
       <r>   -2.2216    1.0000 </r>
       <r>   -1.4829    1.0000 </r>
       <r>    6.7627    1.0000 </r>
       <r>    6.7627    1.0000 </r>
       <r>    7.3571    1.0000 </r>
       <r>    7.3571    1.0000 </r>
       <r>    7.4640    1.0000 </r>
       <r>    7.4640    1.0000 </r>
       <r>    8.7619    1.0000 </r>
       <r>    8.7619    1.0000 </r>
       <r>   15.1756    0.0000 </r>
       <r>   15.1756    0.0000 </r>
       <r>   15.2600    0.0000 </r>
       <r>   15.8248    0.0000 </r>
       <r>   15.8248    0.0000 </r>
       <r>   16.6062    0.0000 </r>
      </set>
      <set comment="kpoint 8">
       <r>   -4.1664    1.0000 </r>
       <r>    3.8542    1.0000 </r>
       <r>    3.8542    1.0000 </r>
       <r>    4.9265    1.0000 </r>
       <r>    5.7697    1.0000 </r>
       <r>    6.8320    1.0000 </r>
       <r>    6.8320    1.0000 </r>
       <r>   11.5395    0.0000 </r>
       <r>   12.5540    0.0000 </r>
       <r>   12.5540    0.0000 </r>
       <r>   13.0092    0.0000 </r>
       <r>   13.0092    0.0000 </r>
       <r>   13.4702    0.0000 </r>
       <r>   15.5616    0.0000 </r>
       <r>   15.6079    0.0000 </r>
       <r>   15.6079    0.0000 </r>
      </set>
      <set comment="kpoint 9">
       <r>   -3.9941    1.0000 </r>
       <r>    2.6062    1.0000 </r>
       <r>    4.0180    1.0000 </r>
       <r>    5.0886    1.0000 </r>
       <r>    5.9292    1.0000 </r>
       <r>    6.9901    1.0000 </r>
       <r>    8.3713    1.0000 </r>
       <r>   10.3781   -0.0069 </r>
       <r>   11.3724    0.0000 </r>
       <r>   12.1410    0.0000 </r>
       <r>   12.7111    0.0000 </r>
       <r>   13.0080    0.0000 </r>
       <r>   13.1641    0.0000 </r>
       <r>   15.7713    0.0000 </r>
       <r>   16.4991    0.0000 </r>
       <r>   17.1024    0.0000 </r>
      </set>
      <set comment="kpoint 10">
       <r>   -3.7072    1.0000 </r>
       <r>    1.4423    1.0000 </r>
       <r>    4.2906    1.0000 </r>
       <r>    5.3587    1.0000 </r>
       <r>    6.1901    1.0000 </r>
       <r>    7.2501    1.0000 </r>
       <r>    9.2857    1.0000 </r>
       <r>   10.0146    0.9951 </r>
       <r>   10.2579    0.1562 </r>
       <r>   11.1820    0.0000 </r>
       <r>   12.1091    0.0000 </r>
       <r>   12.9726    0.0000 </r>
       <r>   13.4238    0.0000 </r>
       <r>   16.0435    0.0000 </r>
       <r>   17.6454    0.0000 </r>
       <r>   17.9275    0.0000 </r>
      </set>
      <set comment="kpoint 11">
       <r>   -3.3062    1.0000 </r>
       <r>    0.3795    1.0000 </r>
       <r>    4.6708    1.0000 </r>
       <r>    5.7368    1.0000 </r>
       <r>    6.5352    1.0000 </r>
       <r>    7.6016    1.0000 </r>
       <r>    8.3028    1.0000 </r>
       <r>    9.2404    1.0000 </r>
       <r>   10.2656    0.1010 </r>
       <r>   11.1886    0.0000 </r>
       <r>   11.7303    0.0000 </r>
       <r>   13.3383    0.0000 </r>
       <r>   13.7940    0.0000 </r>
       <r>   16.4246    0.0000 </r>
       <r>   16.6883    0.0000 </r>
       <r>   16.9543    0.0000 </r>
      </set>
      <set comment="kpoint 12">
       <r>   -2.7918    1.0000 </r>
       <r>   -0.5776    1.0000 </r>
       <r>    5.1565    1.0000 </r>
       <r>    6.2228    1.0000 </r>
       <r>    6.8276    1.0000 </r>
       <r>    7.5676    1.0000 </r>
       <r>    7.9994    1.0000 </r>
       <r>    8.3262    1.0000 </r>
       <r>    9.4802    1.0000 </r>
       <r>   10.3379   -0.0415 </r>
       <r>   13.4519    0.0000 </r>
       <r>   13.8071    0.0000 </r>
       <r>   14.3185    0.0000 </r>
       <r>   15.8217    0.0000 </r>
       <r>   16.1162    0.0000 </r>
       <r>   16.9115    0.0000 </r>
      </set>
      <set comment="kpoint 13">
       <r>   -2.1648    1.0000 </r>
       <r>   -1.4263    1.0000 </r>
       <r>    5.7416    1.0000 </r>
       <r>    6.3994    1.0000 </r>
       <r>    6.8166    1.0000 </r>
       <r>    7.5179    1.0000 </r>
       <r>    7.7269    1.0000 </r>
       <r>    8.1400    1.0000 </r>
       <r>    9.1506    1.0000 </r>
       <r>    9.6055    1.0000 </r>
       <r>   14.3783    0.0000 </r>
       <r>   14.6407    0.0000 </r>
       <r>   15.0507    0.0000 </r>
       <r>   15.3575    0.0000 </r>
       <r>   15.4943    0.0000 </r>
       <r>   17.1692    0.0000 </r>
      </set>
      <set comment="kpoint 14">
       <r>   -3.8219    1.0000 </r>
       <r>    2.7717    1.0000 </r>
       <r>    2.7717    1.0000 </r>
       <r>    5.2506    1.0000 </r>
       <r>    6.0824    1.0000 </r>
       <r>    8.5233    1.0000 </r>
       <r>    8.5233    1.0000 </r>
       <r>    9.2077    1.0000 </r>
       <r>   11.5318    0.0000 </r>
       <r>   11.5318    0.0000 </r>
       <r>   12.3045    0.0000 </r>
       <r>   12.3045    0.0000 </r>
       <r>   13.7694    0.0000 </r>
       <r>   16.1508    0.0000 </r>
       <r>   17.2630    0.0000 </r>
       <r>   17.2630    0.0000 </r>
      </set>
      <set comment="kpoint 15">
       <r>   -3.5353    1.0000 </r>
       <r>    1.6092    1.0000 </r>
       <r>    3.0471    1.0000 </r>
       <r>    5.5207    1.0000 </r>
       <r>    6.3195    1.0000 </r>
       <r>    8.1307    1.0000 </r>
       <r>    8.7673    1.0000 </r>
       <r>   10.1515    1.0224 </r>
       <r>   10.4185    0.0048 </r>
       <r>   11.3608    0.0000 </r>
       <r>   11.7973    0.0000 </r>
       <r>   12.5849    0.0000 </r>
       <r>   13.4100    0.0000 </r>
       <r>   16.5515    0.0000 </r>
       <r>   16.9784    0.0000 </r>
       <r>   17.0648    0.0000 </r>
      </set>
      <set comment="kpoint 16">
       <r>   -3.1347    1.0000 </r>
       <r>    0.5475    1.0000 </r>
       <r>    3.4316    1.0000 </r>
       <r>    5.8988    1.0000 </r>
       <r>    6.4963    1.0000 </r>
       <r>    7.3127    1.0000 </r>
       <r>    9.0625    1.0000 </r>
       <r>    9.4014    1.0000 </r>
       <r>   10.4973    0.0009 </r>
       <r>   11.8057    0.0000 </r>
       <r>   12.1686    0.0000 </r>
       <r>   12.6096    0.0000 </r>
       <r>   13.0267    0.0000 </r>
       <r>   15.5767    0.0000 </r>
       <r>   16.0746    0.0000 </r>
       <r>   17.9033    0.0000 </r>
      </set>
      <set comment="kpoint 17">
       <r>   -2.6208    1.0000 </r>
       <r>   -0.4087    1.0000 </r>
       <r>    3.9237    1.0000 </r>
       <r>    5.9752    1.0000 </r>
       <r>    6.3847    1.0000 </r>
       <r>    7.3952    1.0000 </r>
       <r>    8.4876    1.0000 </r>
       <r>    9.1049    1.0000 </r>
       <r>   10.0600    1.0035 </r>
       <r>   11.7906    0.0000 </r>
       <r>   12.6449    0.0000 </r>
       <r>   13.0868    0.0000 </r>
       <r>   14.0091    0.0000 </r>
       <r>   14.6941    0.0000 </r>
       <r>   15.2397    0.0000 </r>
       <r>   18.3802    0.0000 </r>
      </set>
      <set comment="kpoint 18">
       <r>   -1.9944    1.0000 </r>
       <r>   -1.2565    1.0000 </r>
       <r>    4.5206    1.0000 </r>
       <r>    5.2150    1.0000 </r>
       <r>    6.9784    1.0000 </r>
       <r>    7.6796    1.0000 </r>
       <r>    7.9153    1.0000 </r>
       <r>    8.5455    1.0000 </r>
       <r>   10.4157    0.0047 </r>
       <r>   11.0441    0.0000 </r>
       <r>   13.2254    0.0000 </r>
       <r>   13.7948    0.0000 </r>
       <r>   13.9091    0.0000 </r>
       <r>   14.4819    0.0000 </r>
       <r>   15.6992    0.0000 </r>
       <r>   17.4776    0.0000 </r>
      </set>
      <set comment="kpoint 19">
       <r>   -3.2492    1.0000 </r>
       <r>    1.8869    1.0000 </r>
       <r>    1.8869    1.0000 </r>
       <r>    5.7907    1.0000 </r>
       <r>    6.3855    1.0000 </r>
       <r>    7.2171    1.0000 </r>
       <r>   10.3372   -0.0421 </r>
       <r>   10.3372   -0.0421 </r>
       <r>   10.6857    0.0000 </r>
       <r>   10.6857    0.0000 </r>
       <r>   11.7012    0.0000 </r>
       <r>   11.7012    0.0000 </r>
       <r>   14.2667    0.0000 </r>
       <r>   15.4846    0.0000 </r>
       <r>   16.0379    0.0000 </r>
       <r>   16.7633    0.0000 </r>
      </set>
      <set comment="kpoint 20">
       <r>   -2.8492    1.0000 </r>
       <r>    0.8271    1.0000 </r>
       <r>    2.2748    1.0000 </r>
       <r>    5.7584    1.0000 </r>
       <r>    6.1687    1.0000 </r>
       <r>    7.1973    1.0000 </r>
       <r>    9.6697    1.0000 </r>
       <r>   10.2636    0.1144 </r>
       <r>   11.0594    0.0000 </r>
       <r>   11.2041    0.0000 </r>
       <r>   11.6002    0.0000 </r>
       <r>   12.5382    0.0000 </r>
       <r>   14.0189    0.0000 </r>
       <r>   14.4983    0.0000 </r>
       <r>   15.1346    0.0000 </r>
       <r>   17.7459    0.0000 </r>
      </set>
      <set comment="kpoint 21">
       <r>   -2.3361    1.0000 </r>
       <r>   -0.1275    1.0000 </r>
       <r>    2.7719    1.0000 </r>
       <r>    4.8901    1.0000 </r>
       <r>    6.6545    1.0000 </r>
       <r>    7.6241    1.0000 </r>
       <r>    8.7565    1.0000 </r>
       <r>    9.6010    1.0000 </r>
       <r>   11.4646    0.0000 </r>
       <r>   11.5392    0.0000 </r>
       <r>   12.2576    0.0000 </r>
       <r>   13.3308    0.0000 </r>
       <r>   13.6061    0.0000 </r>
       <r>   14.1512    0.0000 </r>
       <r>   14.2976    0.0000 </r>
       <r>   19.3444    0.0000 </r>
      </set>
      <set comment="kpoint 22">
       <r>   -1.7106    1.0000 </r>
       <r>   -0.9740    1.0000 </r>
       <r>    3.3764    1.0000 </r>
       <r>    4.0850    1.0000 </r>
       <r>    7.2480    1.0000 </r>
       <r>    7.9489    1.0000 </r>
       <r>    8.1921    1.0000 </r>
       <r>    8.8618    1.0000 </r>
       <r>   11.9852    0.0000 </r>
       <r>   12.1244    0.0000 </r>
       <r>   12.6221    0.0000 </r>
       <r>   12.8139    0.0000 </r>
       <r>   12.8638    0.0000 </r>
       <r>   13.5396    0.0000 </r>
       <r>   15.9561    0.0000 </r>
       <r>   17.7728    0.0000 </r>
      </set>
      <set comment="kpoint 23">
       <r>   -2.4501    1.0000 </r>
       <r>    1.2177    1.0000 </r>
       <r>    1.2177    1.0000 </r>
       <r>    4.7810    1.0000 </r>
       <r>    6.5465    1.0000 </r>
       <r>    7.5221    1.0000 </r>
       <r>   10.0449    0.9978 </r>
       <r>   10.0449    0.9978 </r>
       <r>   10.8465    0.0000 </r>
       <r>   10.8465    0.0000 </r>
       <r>   12.7188    0.0000 </r>
       <r>   12.7188    0.0000 </r>
       <r>   13.5034    0.0000 </r>
       <r>   14.2275    0.0000 </r>
       <r>   14.9594    0.0000 </r>
       <r>   17.5515    0.0000 </r>
      </set>
      <set comment="kpoint 24">
       <r>   -1.9381    1.0000 </r>
       <r>    0.2655    1.0000 </r>
       <r>    1.7186    1.0000 </r>
       <r>    3.8656    1.0000 </r>
       <r>    7.0322    1.0000 </r>
       <r>    7.9913    1.0000 </r>
       <r>    9.1328    1.0000 </r>
       <r>   10.0202    0.9951 </r>
       <r>   10.5268    0.0002 </r>
       <r>   11.3626    0.0000 </r>
       <r>   12.6050    0.0000 </r>
       <r>   13.1331    0.0000 </r>
       <r>   13.3859    0.0000 </r>
       <r>   14.4693    0.0000 </r>
       <r>   14.8265    0.0000 </r>
       <r>   18.6084    0.0000 </r>
      </set>
      <set comment="kpoint 25">
       <r>   -1.3140    1.0000 </r>
       <r>   -0.5790    1.0000 </r>
       <r>    2.3285    1.0000 </r>
       <r>    3.0453    1.0000 </r>
       <r>    7.6254    1.0000 </r>
       <r>    8.3258    1.0000 </r>
       <r>    8.5720    1.0000 </r>
       <r>    9.2525    1.0000 </r>
       <r>   11.1147    0.0000 </r>
       <r>   11.8080    0.0000 </r>
       <r>   11.9498    0.0000 </r>
       <r>   12.6244    0.0000 </r>
       <r>   13.6597    0.0000 </r>
       <r>   14.2556    0.0000 </r>
       <r>   16.2835    0.0000 </r>
       <r>   18.0725    0.0000 </r>
      </set>
      <set comment="kpoint 26">
       <r>   -1.4275    1.0000 </r>
       <r>    0.7696    1.0000 </r>
       <r>    0.7696    1.0000 </r>
       <r>    2.9346    1.0000 </r>
       <r>    7.5175    1.0000 </r>
       <r>    8.4711    1.0000 </r>
       <r>    9.6160    1.0000 </r>
       <r>    9.6160    1.0000 </r>
       <r>   10.5123    0.0005 </r>
       <r>   10.5123    0.0005 </r>
       <r>   11.7021    0.0000 </r>
       <r>   12.5390    0.0000 </r>
       <r>   14.8888    0.0000 </r>
       <r>   14.8888    0.0000 </r>
       <r>   15.8420    0.0000 </r>
       <r>   18.5338    0.0000 </r>
      </set>
      <set comment="kpoint 27">
       <r>   -0.8052    1.0000 </r>
       <r>   -0.0724    1.0000 </r>
       <r>    1.3835    1.0000 </r>
       <r>    2.1060    1.0000 </r>
       <r>    8.1103    1.0000 </r>
       <r>    8.8100    1.0000 </r>
       <r>    9.0555    1.0000 </r>
       <r>    9.7386    1.0000 </r>
       <r>   10.2059    0.6684 </r>
       <r>   10.9016    0.0000 </r>
       <r>   11.0961    0.0000 </r>
       <r>   11.7729    0.0000 </r>
       <r>   15.3723    0.0000 </r>
       <r>   15.8241    0.0000 </r>
       <r>   16.6608    0.0000 </r>
       <r>   18.3040    0.0000 </r>
      </set>
      <set comment="kpoint 28">
       <r>   -0.1852    1.0000 </r>
       <r>    0.5449    1.0000 </r>
       <r>    0.5449    1.0000 </r>
       <r>    1.2716    1.0000 </r>
       <r>    8.7024    1.0000 </r>
       <r>    9.4012    1.0000 </r>
       <r>    9.4012    1.0000 </r>
       <r>    9.6404    1.0000 </r>
       <r>   10.0987    1.0346 </r>
       <r>   10.3227   -0.0509 </r>
       <r>   10.3227   -0.0509 </r>
       <r>   11.0026    0.0000 </r>
       <r>   16.9023    0.0000 </r>
       <r>   16.9958    0.0000 </r>
       <r>   16.9958    0.0000 </r>
       <r>   18.1135    0.0000 </r>
      </set>
      <set comment="kpoint 29">
       <r>   -4.1090    1.0000 </r>
       <r>    3.9088    1.0000 </r>
       <r>    3.9088    1.0000 </r>
       <r>    3.9088    1.0000 </r>
       <r>    6.8845    1.0000 </r>
       <r>    6.8845    1.0000 </r>
       <r>    6.8845    1.0000 </r>
       <r>   11.5931    0.0000 </r>
       <r>   11.5931    0.0000 </r>
       <r>   11.5931    0.0000 </r>
       <r>   13.5204    0.0000 </r>
       <r>   13.5204    0.0000 </r>
       <r>   13.5204    0.0000 </r>
       <r>   15.6172    0.0000 </r>
       <r>   15.6172    0.0000 </r>
       <r>   15.6172    0.0000 </r>
      </set>
      <set comment="kpoint 30">
       <r>   -3.9367    1.0000 </r>
       <r>    2.6614    1.0000 </r>
       <r>    4.0724    1.0000 </r>
       <r>    4.0724    1.0000 </r>
       <r>    7.0407    1.0000 </r>
       <r>    7.0407    1.0000 </r>
       <r>    8.4215    1.0000 </r>
       <r>   10.4338    0.0047 </r>
       <r>   10.4338    0.0047 </r>
       <r>   11.7550    0.0000 </r>
       <r>   13.0599    0.0000 </r>
       <r>   13.0599    0.0000 </r>
       <r>   13.6711    0.0000 </r>
       <r>   15.7846    0.0000 </r>
       <r>   16.5534    0.0000 </r>
       <r>   16.5534    0.0000 </r>
      </set>
      <set comment="kpoint 31">
       <r>   -3.6499    1.0000 </r>
       <r>    1.4980    1.0000 </r>
       <r>    4.3445    1.0000 </r>
       <r>    4.3445    1.0000 </r>
       <r>    7.2933    1.0000 </r>
       <r>    7.2933    1.0000 </r>
       <r>    9.3470    1.0000 </r>
       <r>    9.3470    1.0000 </r>
       <r>   10.0579    1.0025 </r>
       <r>   12.0293    0.0000 </r>
       <r>   12.1632    0.0000 </r>
       <r>   12.1632    0.0000 </r>
       <r>   13.9220    0.0000 </r>
       <r>   16.0631    0.0000 </r>
       <r>   16.6610    0.0000 </r>
       <r>   18.0282    0.0000 </r>
      </set>
      <set comment="kpoint 32">
       <r>   -3.2491    1.0000 </r>
       <r>    0.4355    1.0000 </r>
       <r>    4.7235    1.0000 </r>
       <r>    4.7235    1.0000 </r>
       <r>    7.5914    1.0000 </r>
       <r>    7.5914    1.0000 </r>
       <r>    8.4075    1.0000 </r>
       <r>    8.4075    1.0000 </r>
       <r>   11.2461    0.0000 </r>
       <r>   11.2461    0.0000 </r>
       <r>   11.7275    0.0000 </r>
       <r>   12.4559    0.0000 </r>
       <r>   14.2732    0.0000 </r>
       <r>   15.7083    0.0000 </r>
       <r>   16.4545    0.0000 </r>
       <r>   17.5079    0.0000 </r>
      </set>
      <set comment="kpoint 33">
       <r>   -2.7348    1.0000 </r>
       <r>   -0.5213    1.0000 </r>
       <r>    5.2050    1.0000 </r>
       <r>    5.2050    1.0000 </r>
       <r>    7.2988    1.0000 </r>
       <r>    7.2988    1.0000 </r>
       <r>    8.2521    1.0000 </r>
       <r>    8.2521    1.0000 </r>
       <r>   10.4049    0.0034 </r>
       <r>   10.4049    0.0034 </r>
       <r>   12.7689    0.0000 </r>
       <r>   13.6708    0.0000 </r>
       <r>   14.7241    0.0000 </r>
       <r>   14.8409    0.0000 </r>
       <r>   16.6677    0.0000 </r>
       <r>   16.9626    0.0000 </r>
      </set>
      <set comment="kpoint 34">
       <r>   -2.1080    1.0000 </r>
       <r>   -1.3697    1.0000 </r>
       <r>    5.7615    1.0000 </r>
       <r>    5.7615    1.0000 </r>
       <r>    6.5780    1.0000 </r>
       <r>    6.5780    1.0000 </r>
       <r>    8.6828    1.0000 </r>
       <r>    8.6828    1.0000 </r>
       <r>    9.7305    1.0000 </r>
       <r>    9.7305    1.0000 </r>
       <r>   13.3820    0.0000 </r>
       <r>   14.0653    0.0000 </r>
       <r>   15.2742    0.0000 </r>
       <r>   15.4230    0.0000 </r>
       <r>   15.9225    0.0000 </r>
       <r>   17.0791    0.0000 </r>
      </set>
      <set comment="kpoint 35">
       <r>   -3.7646    1.0000 </r>
       <r>    2.8267    1.0000 </r>
       <r>    2.8267    1.0000 </r>
       <r>    4.2353    1.0000 </r>
       <r>    7.1870    1.0000 </r>
       <r>    8.5674    1.0000 </r>
       <r>    8.5674    1.0000 </r>
       <r>    9.2700    1.0000 </r>
       <r>   10.6047    0.0000 </r>
       <r>   10.6047    0.0000 </r>
       <r>   13.2158    0.0000 </r>
       <r>   13.2158    0.0000 </r>
       <r>   13.8195    0.0000 </r>
       <r>   16.2063    0.0000 </r>
       <r>   16.5945    0.0000 </r>
       <r>   16.7166    0.0000 </r>
      </set>
      <set comment="kpoint 36">
       <r>   -3.4781    1.0000 </r>
       <r>    1.6647    1.0000 </r>
       <r>    3.1018    1.0000 </r>
       <r>    4.5053    1.0000 </r>
       <r>    7.3752    1.0000 </r>
       <r>    8.2417    1.0000 </r>
       <r>    8.7649    1.0000 </r>
       <r>    9.5663    1.0000 </r>
       <r>   10.1502    1.0258 </r>
       <r>   10.9306    0.0000 </r>
       <r>   12.3269    0.0000 </r>
       <r>   13.4617    0.0000 </r>
       <r>   13.4771    0.0000 </r>
       <r>   15.5526    0.0000 </r>
       <r>   16.9887    0.0000 </r>
       <r>   17.1186    0.0000 </r>
      </set>
      <set comment="kpoint 37">
       <r>   -3.0776    1.0000 </r>
       <r>    0.6033    1.0000 </r>
       <r>    3.4856    1.0000 </r>
       <r>    4.8782    1.0000 </r>
       <r>    6.9910    1.0000 </r>
       <r>    7.9889    1.0000 </r>
       <r>    8.3756    1.0000 </r>
       <r>    9.2962    1.0000 </r>
       <r>   11.1301    0.0000 </r>
       <r>   11.4247    0.0000 </r>
       <r>   12.0387    0.0000 </r>
       <r>   12.6634    0.0000 </r>
       <r>   13.8500    0.0000 </r>
       <r>   14.5873    0.0000 </r>
       <r>   17.0352    0.0000 </r>
       <r>   17.3698    0.0000 </r>
      </set>
      <set comment="kpoint 38">
       <r>   -2.5638    1.0000 </r>
       <r>   -0.3524    1.0000 </r>
       <r>    3.9761    1.0000 </r>
       <r>    5.3237    1.0000 </r>
       <r>    6.1773    1.0000 </r>
       <r>    7.5139    1.0000 </r>
       <r>    8.4015    1.0000 </r>
       <r>    9.6309    1.0000 </r>
       <r>   10.6532    0.0000 </r>
       <r>   11.6516    0.0000 </r>
       <r>   11.8476    0.0000 </r>
       <r>   13.7027    0.0000 </r>
       <r>   13.7103    0.0000 </r>
       <r>   14.3935    0.0000 </r>
       <r>   16.1967    0.0000 </r>
       <r>   17.8633    0.0000 </r>
      </set>
      <set comment="kpoint 39">
       <r>   -1.9376    1.0000 </r>
       <r>   -1.2000    1.0000 </r>
       <r>    4.5678    1.0000 </r>
       <r>    5.2271    1.0000 </r>
       <r>    6.0684    1.0000 </r>
       <r>    6.7235    1.0000 </r>
       <r>    8.9511    1.0000 </r>
       <r>    9.5340    1.0000 </r>
       <r>   10.5378    0.0001 </r>
       <r>   11.1100    0.0000 </r>
       <r>   12.2418    0.0000 </r>
       <r>   12.9275    0.0000 </r>
       <r>   14.7426    0.0000 </r>
       <r>   15.4389    0.0000 </r>
       <r>   15.7190    0.0000 </r>
       <r>   17.4190    0.0000 </r>
      </set>
      <set comment="kpoint 40">
       <r>   -3.1920    1.0000 </r>
       <r>    1.9422    1.0000 </r>
       <r>    1.9422    1.0000 </r>
       <r>    4.7689    1.0000 </r>
       <r>    6.8853    1.0000 </r>
       <r>    7.8907    1.0000 </r>
       <r>    9.6572    1.0000 </r>
       <r>    9.6572    1.0000 </r>
       <r>   10.5678    0.0000 </r>
       <r>   10.5678    0.0000 </r>
       <r>   12.6081    0.0000 </r>
       <r>   12.6081    0.0000 </r>
       <r>   14.3167    0.0000 </r>
       <r>   14.4974    0.0000 </r>
       <r>   16.8183    0.0000 </r>
       <r>   17.0507    0.0000 </r>
      </set>
      <set comment="kpoint 41">
       <r>   -2.7922    1.0000 </r>
       <r>    0.8828    1.0000 </r>
       <r>    2.3297    1.0000 </r>
       <r>    5.1039    1.0000 </r>
       <r>    5.9678    1.0000 </r>
       <r>    8.2037    1.0000 </r>
       <r>    8.6941    1.0000 </r>
       <r>   10.0786    1.0160 </r>
       <r>   10.7948    0.0000 </r>
       <r>   11.7814    0.0000 </r>
       <r>   12.1569    0.0000 </r>
       <r>   13.0673    0.0000 </r>
       <r>   13.5215    0.0000 </r>
       <r>   14.0704    0.0000 </r>
       <r>   16.1516    0.0000 </r>
       <r>   17.7984    0.0000 </r>
      </set>
      <set comment="kpoint 42">
       <r>   -2.2792    1.0000 </r>
       <r>   -0.0714    1.0000 </r>
       <r>    2.8259    1.0000 </r>
       <r>    4.8994    1.0000 </r>
       <r>    5.7507    1.0000 </r>
       <r>    7.7940    1.0000 </r>
       <r>    8.6682    1.0000 </r>
       <r>   10.5691    0.0000 </r>
       <r>   10.5871    0.0000 </r>
       <r>   11.5836    0.0000 </r>
       <r>   12.6361    0.0000 </r>
       <r>   13.2350    0.0000 </r>
       <r>   13.3842    0.0000 </r>
       <r>   14.2427    0.0000 </r>
       <r>   15.3138    0.0000 </r>
       <r>   19.2869    0.0000 </r>
      </set>
      <set comment="kpoint 43">
       <r>   -1.6540    1.0000 </r>
       <r>   -0.9176    1.0000 </r>
       <r>    3.4286    1.0000 </r>
       <r>    4.1317    1.0000 </r>
       <r>    6.2992    1.0000 </r>
       <r>    6.9921    1.0000 </r>
       <r>    9.2404    1.0000 </r>
       <r>    9.9020    0.9999 </r>
       <r>   11.1577    0.0000 </r>
       <r>   11.8471    0.0000 </r>
       <r>   12.0502    0.0000 </r>
       <r>   12.6785    0.0000 </r>
       <r>   13.8757    0.0000 </r>
       <r>   14.5549    0.0000 </r>
       <r>   15.9975    0.0000 </r>
       <r>   17.7817    0.0000 </r>
      </set>
      <set comment="kpoint 44">
       <r>   -2.3932    1.0000 </r>
       <r>    1.2732    1.0000 </r>
       <r>    1.2732    1.0000 </r>
       <r>    4.7895    1.0000 </r>
       <r>    5.6440    1.0000 </r>
       <r>    8.5671    1.0000 </r>
       <r>    9.0812    1.0000 </r>
       <r>    9.0812    1.0000 </r>
       <r>   11.8281    0.0000 </r>
       <r>   11.8281    0.0000 </r>
       <r>   12.5371    0.0000 </r>
       <r>   12.8308    0.0000 </r>
       <r>   12.8308    0.0000 </r>
       <r>   15.0091    0.0000 </r>
       <r>   15.2536    0.0000 </r>
       <r>   17.6049    0.0000 </r>
      </set>
      <set comment="kpoint 45">
       <r>   -1.8813    1.0000 </r>
       <r>    0.3214    1.0000 </r>
       <r>    1.7736    1.0000 </r>
       <r>    3.9119    1.0000 </r>
       <r>    6.0846    1.0000 </r>
       <r>    8.1754    1.0000 </r>
       <r>    9.0425    1.0000 </r>
       <r>    9.5680    1.0000 </r>
       <r>   11.0536    0.0000 </r>
       <r>   11.6450    0.0000 </r>
       <r>   12.3877    0.0000 </r>
       <r>   13.1967    0.0000 </r>
       <r>   14.4136    0.0000 </r>
       <r>   14.5283    0.0000 </r>
       <r>   14.8774    0.0000 </r>
       <r>   18.6590    0.0000 </r>
      </set>
      <set comment="kpoint 46">
       <r>   -1.2575    1.0000 </r>
       <r>   -0.5228    1.0000 </r>
       <r>    2.3825    1.0000 </r>
       <r>    3.0975    1.0000 </r>
       <r>    6.6714    1.0000 </r>
       <r>    7.3705    1.0000 </r>
       <r>    9.6216    1.0000 </r>
       <r>   10.1580    1.0029 </r>
       <r>   10.2970   -0.0324 </r>
       <r>   10.8509    0.0000 </r>
       <r>   12.9784    0.0000 </r>
       <r>   13.6526    0.0000 </r>
       <r>   13.7152    0.0000 </r>
       <r>   14.3082    0.0000 </r>
       <r>   16.3292    0.0000 </r>
       <r>   18.1022    0.0000 </r>
      </set>
      <set comment="kpoint 47">
       <r>   -1.3710    1.0000 </r>
       <r>    0.8251    1.0000 </r>
       <r>    0.8251    1.0000 </r>
       <r>    2.9868    1.0000 </r>
       <r>    6.5640    1.0000 </r>
       <r>    8.6619    1.0000 </r>
       <r>    8.6619    1.0000 </r>
       <r>    9.5217    1.0000 </r>
       <r>   10.7476    0.0000 </r>
       <r>   11.5490    0.0000 </r>
       <r>   11.5490    0.0000 </r>
       <r>   13.5698    0.0000 </r>
       <r>   14.9420    0.0000 </r>
       <r>   14.9420    0.0000 </r>
       <r>   15.8908    0.0000 </r>
       <r>   18.5840    0.0000 </r>
      </set>
      <set comment="kpoint 48">
       <r>   -0.7490    1.0000 </r>
       <r>   -0.0165    1.0000 </r>
       <r>    1.4385    1.0000 </r>
       <r>    2.1600    1.0000 </r>
       <r>    7.1565    1.0000 </r>
       <r>    7.8568    1.0000 </r>
       <r>    9.2536    1.0000 </r>
       <r>    9.9494    0.9990 </r>
       <r>   10.1029    1.0385 </r>
       <r>   10.7813    0.0000 </r>
       <r>   12.1312    0.0000 </r>
       <r>   12.8059    0.0000 </r>
       <r>   15.4233    0.0000 </r>
       <r>   15.8738    0.0000 </r>
       <r>   16.7076    0.0000 </r>
       <r>   18.3409    0.0000 </r>
      </set>
      <set comment="kpoint 49">
       <r>   -0.1292    1.0000 </r>
       <r>    0.6005    1.0000 </r>
       <r>    0.6005    1.0000 </r>
       <r>    1.3266    1.0000 </r>
       <r>    7.7501    1.0000 </r>
       <r>    8.4499    1.0000 </r>
       <r>    8.4499    1.0000 </r>
       <r>    9.1481    1.0000 </r>
       <r>   10.6841    0.0000 </r>
       <r>   11.3623    0.0000 </r>
       <r>   11.3623    0.0000 </r>
       <r>   12.0389    0.0000 </r>
       <r>   16.9492    0.0000 </r>
       <r>   17.0423    0.0000 </r>
       <r>   17.0423    0.0000 </r>
       <r>   18.1547    0.0000 </r>
      </set>
      <set comment="kpoint 50">
       <r>   -3.5927    1.0000 </r>
       <r>    2.9915    1.0000 </r>
       <r>    2.9915    1.0000 </r>
       <r>    2.9915    1.0000 </r>
       <r>    8.6586    1.0000 </r>
       <r>    8.6586    1.0000 </r>
       <r>    8.6586    1.0000 </r>
       <r>    9.4956    1.0000 </r>
       <r>    9.4956    1.0000 </r>
       <r>    9.4956    1.0000 </r>
       <r>   13.9700    0.0000 </r>
       <r>   13.9700    0.0000 </r>
       <r>   13.9700    0.0000 </r>
       <r>   15.4724    0.0000 </r>
       <r>   16.3735    0.0000 </r>
       <r>   16.3735    0.0000 </r>
      </set>
      <set comment="kpoint 51">
       <r>   -3.3064    1.0000 </r>
       <r>    1.8310    1.0000 </r>
       <r>    3.2654    1.0000 </r>
       <r>    3.2654    1.0000 </r>
       <r>    8.1770    1.0000 </r>
       <r>    8.1770    1.0000 </r>
       <r>    9.1325    1.0000 </r>
       <r>    9.1325    1.0000 </r>
       <r>    9.5635    1.0000 </r>
       <r>   10.5019    0.0007 </r>
       <r>   13.6172    0.0000 </r>
       <r>   13.6172    0.0000 </r>
       <r>   14.2206    0.0000 </r>
       <r>   14.4137    0.0000 </r>
       <r>   16.6521    0.0000 </r>
       <r>   17.2802    0.0000 </r>
      </set>
      <set comment="kpoint 52">
       <r>   -2.9063    1.0000 </r>
       <r>    0.7709    1.0000 </r>
       <r>    3.6465    1.0000 </r>
       <r>    3.6465    1.0000 </r>
       <r>    7.2177    1.0000 </r>
       <r>    7.2177    1.0000 </r>
       <r>    9.4422    1.0000 </r>
       <r>    9.4422    1.0000 </r>
       <r>    9.9915    0.9965 </r>
       <r>   12.1717    0.0000 </r>
       <r>   12.8262    0.0000 </r>
       <r>   12.8262    0.0000 </r>
       <r>   13.4370    0.0000 </r>
       <r>   14.5712    0.0000 </r>
       <r>   17.0454    0.0000 </r>
       <r>   17.7882    0.0000 </r>
      </set>
      <set comment="kpoint 53">
       <r>   -2.3931    1.0000 </r>
       <r>   -0.1839    1.0000 </r>
       <r>    4.1292    1.0000 </r>
       <r>    4.1292    1.0000 </r>
       <r>    6.3222    1.0000 </r>
       <r>    6.3222    1.0000 </r>
       <r>    9.8855    1.0000 </r>
       <r>    9.8855    1.0000 </r>
       <r>   10.4837    0.0014 </r>
       <r>   12.0243    0.0000 </r>
       <r>   12.0243    0.0000 </r>
       <r>   12.5515    0.0000 </r>
       <r>   13.9373    0.0000 </r>
       <r>   15.0210    0.0000 </r>
       <r>   16.9556    0.0000 </r>
       <r>   17.5599    0.0000 </r>
      </set>
      <set comment="kpoint 54">
       <r>   -1.7674    1.0000 </r>
       <r>   -1.0306    1.0000 </r>
       <r>    4.6763    1.0000 </r>
       <r>    4.6763    1.0000 </r>
       <r>    5.5659    1.0000 </r>
       <r>    5.5659    1.0000 </r>
       <r>   10.3687   -0.0135 </r>
       <r>   10.3687   -0.0135 </r>
       <r>   11.0729    0.0000 </r>
       <r>   11.3542    0.0000 </r>
       <r>   11.3542    0.0000 </r>
       <r>   11.7626    0.0000 </r>
       <r>   15.5694    0.0000 </r>
       <r>   15.7097    0.0000 </r>
       <r>   16.2149    0.0000 </r>
       <r>   17.3357    0.0000 </r>
      </set>
      <set comment="kpoint 55">
       <r>   -3.0206    1.0000 </r>
       <r>    2.1077    1.0000 </r>
       <r>    2.1077    1.0000 </r>
       <r>    3.5363    1.0000 </r>
       <r>    7.1145    1.0000 </r>
       <r>    8.5051    1.0000 </r>
       <r>    8.5051    1.0000 </r>
       <r>    9.3474    1.0000 </r>
       <r>   10.7099    0.0000 </r>
       <r>   10.7099    0.0000 </r>
       <r>   13.3420    0.0000 </r>
       <r>   13.8776    0.0000 </r>
       <r>   13.8776    0.0000 </r>
       <r>   14.4667    0.0000 </r>
       <r>   16.9829    0.0000 </r>
       <r>   17.5490    0.0000 </r>
      </set>
      <set comment="kpoint 56">
       <r>   -2.6212    1.0000 </r>
       <r>    1.0498    1.0000 </r>
       <r>    2.4937    1.0000 </r>
       <r>    3.9088    1.0000 </r>
       <r>    6.1126    1.0000 </r>
       <r>    7.5008    1.0000 </r>
       <r>    8.8948    1.0000 </r>
       <r>    9.7053    1.0000 </r>
       <r>   11.0454    0.0000 </r>
       <r>   12.3553    0.0000 </r>
       <r>   12.4054    0.0000 </r>
       <r>   13.1056    0.0000 </r>
       <r>   14.2249    0.0000 </r>
       <r>   14.2490    0.0000 </r>
       <r>   17.3887    0.0000 </r>
       <r>   17.9528    0.0000 </r>
      </set>
      <set comment="kpoint 57">
       <r>   -2.1087    1.0000 </r>
       <r>    0.0968    1.0000 </r>
       <r>    2.9869    1.0000 </r>
       <r>    4.3440    1.0000 </r>
       <r>    5.2503    1.0000 </r>
       <r>    6.5914    1.0000 </r>
       <r>    9.3830    1.0000 </r>
       <r>   10.1695    0.9530 </r>
       <r>   11.4185    0.0000 </r>
       <r>   11.4623    0.0000 </r>
       <r>   12.3769    0.0000 </r>
       <r>   13.5456    0.0000 </r>
       <r>   14.0986    0.0000 </r>
       <r>   14.7901    0.0000 </r>
       <r>   16.5731    0.0000 </r>
       <r>   18.4146    0.0000 </r>
      </set>
      <set comment="kpoint 58">
       <r>   -1.4841    1.0000 </r>
       <r>   -0.7485    1.0000 </r>
       <r>    3.5809    1.0000 </r>
       <r>    4.2359    1.0000 </r>
       <r>    5.1410    1.0000 </r>
       <r>    5.7907    1.0000 </r>
       <r>    9.9738    0.9978 </r>
       <r>   10.6674    0.0000 </r>
       <r>   10.7241    0.0000 </r>
       <r>   11.3088    0.0000 </r>
       <r>   12.2908    0.0000 </r>
       <r>   12.8535    0.0000 </r>
       <r>   15.1359    0.0000 </r>
       <r>   15.8263    0.0000 </r>
       <r>   16.1025    0.0000 </r>
       <r>   17.7587    0.0000 </r>
      </set>
      <set comment="kpoint 59">
       <r>   -2.2226    1.0000 </r>
       <r>    1.4392    1.0000 </r>
       <r>    1.4392    1.0000 </r>
       <r>    4.2331    1.0000 </r>
       <r>    5.1440    1.0000 </r>
       <r>    7.8838    1.0000 </r>
       <r>    7.8838    1.0000 </r>
       <r>   10.0744    1.0126 </r>
       <r>   11.3609    0.0000 </r>
       <r>   12.6665    0.0000 </r>
       <r>   12.6665    0.0000 </r>
       <r>   13.5611    0.0000 </r>
       <r>   13.5611    0.0000 </r>
       <r>   15.1581    0.0000 </r>
       <r>   16.5873    0.0000 </r>
       <r>   17.7651    0.0000 </r>
      </set>
      <set comment="kpoint 60">
       <r>   -1.7113    1.0000 </r>
       <r>    0.4888    1.0000 </r>
       <r>    1.9379    1.0000 </r>
       <r>    4.0143    1.0000 </r>
       <r>    4.9266    1.0000 </r>
       <r>    6.9710    1.0000 </r>
       <r>    8.3717    1.0000 </r>
       <r>   10.4616    0.0028 </r>
       <r>   10.5455    0.0001 </r>
       <r>   12.4383    0.0000 </r>
       <r>   13.4286    0.0000 </r>
       <r>   13.7354    0.0000 </r>
       <r>   14.7332    0.0000 </r>
       <r>   15.0301    0.0000 </r>
       <r>   15.7823    0.0000 </r>
       <r>   18.8097    0.0000 </r>
      </set>
      <set comment="kpoint 61">
       <r>   -1.0882    1.0000 </r>
       <r>   -0.3543    1.0000 </r>
       <r>    2.5435    1.0000 </r>
       <r>    3.2494    1.0000 </r>
       <r>    5.4676    1.0000 </r>
       <r>    6.1628    1.0000 </r>
       <r>    8.9647    1.0000 </r>
       <r>    9.6619    1.0000 </r>
       <r>   11.1132    0.0000 </r>
       <r>   11.7640    0.0000 </r>
       <r>   13.8871    0.0000 </r>
       <r>   14.3684    0.0000 </r>
       <r>   14.4674    0.0000 </r>
       <r>   15.0386    0.0000 </r>
       <r>   16.4620    0.0000 </r>
       <r>   18.1735    0.0000 </r>
      </set>
      <set comment="kpoint 62">
       <r>   -1.2016    1.0000 </r>
       <r>    0.9914    1.0000 </r>
       <r>    0.9914    1.0000 </r>
       <r>    3.1385    1.0000 </r>
       <r>    5.3595    1.0000 </r>
       <r>    7.4588    1.0000 </r>
       <r>    7.4588    1.0000 </r>
       <r>    9.5573    1.0000 </r>
       <r>   11.0201    0.0000 </r>
       <r>   12.9880    0.0000 </r>
       <r>   12.9880    0.0000 </r>
       <r>   14.9795    0.0000 </r>
       <r>   15.1054    0.0000 </r>
       <r>   15.1054    0.0000 </r>
       <r>   16.0373    0.0000 </r>
       <r>   18.7356    0.0000 </r>
      </set>
      <set comment="kpoint 63">
       <r>   -0.5803    1.0000 </r>
       <r>    0.1512    1.0000 </r>
       <r>    1.6030    1.0000 </r>
       <r>    2.3210    1.0000 </r>
       <r>    5.9470    1.0000 </r>
       <r>    6.6492    1.0000 </r>
       <r>    8.0535    1.0000 </r>
       <r>    8.7537    1.0000 </r>
       <r>   11.5915    0.0000 </r>
       <r>   12.2531    0.0000 </r>
       <r>   13.5717    0.0000 </r>
       <r>   14.2362    0.0000 </r>
       <r>   15.5771    0.0000 </r>
       <r>   16.0227    0.0000 </r>
       <r>   16.8457    0.0000 </r>
       <r>   18.4441    0.0000 </r>
      </set>
      <set comment="kpoint 64">
       <r>    0.0385    1.0000 </r>
       <r>    0.7669    1.0000 </r>
       <r>    0.7669    1.0000 </r>
       <r>    1.4912    1.0000 </r>
       <r>    6.5415    1.0000 </r>
       <r>    7.2447    1.0000 </r>
       <r>    7.2447    1.0000 </r>
       <r>    7.9470    1.0000 </r>
       <r>   12.1643    0.0000 </r>
       <r>   12.8280    0.0000 </r>
       <r>   12.8280    0.0000 </r>
       <r>   13.4916    0.0000 </r>
       <r>   17.0893    0.0000 </r>
       <r>   17.1811    0.0000 </r>
       <r>   17.1811    0.0000 </r>
       <r>   18.2748    0.0000 </r>
      </set>
      <set comment="kpoint 65">
       <r>   -2.7353    1.0000 </r>
       <r>    2.3828    1.0000 </r>
       <r>    2.3828    1.0000 </r>
       <r>    2.3828    1.0000 </r>
       <r>    7.3983    1.0000 </r>
       <r>    7.3983    1.0000 </r>
       <r>    7.3983    1.0000 </r>
       <r>   10.9667    0.0000 </r>
       <r>   10.9667    0.0000 </r>
       <r>   10.9667    0.0000 </r>
       <r>   12.2576    0.0000 </r>
       <r>   14.7165    0.0000 </r>
       <r>   14.7165    0.0000 </r>
       <r>   14.7165    0.0000 </r>
       <r>   17.2575    0.0000 </r>
       <r>   17.2575    0.0000 </r>
      </set>
      <set comment="kpoint 66">
       <r>   -2.3365    1.0000 </r>
       <r>    1.3275    1.0000 </r>
       <r>    2.7652    1.0000 </r>
       <r>    2.7652    1.0000 </r>
       <r>    6.3820    1.0000 </r>
       <r>    6.3820    1.0000 </r>
       <r>    7.7818    1.0000 </r>
       <r>   11.2618    0.0000 </r>
       <r>   11.3242    0.0000 </r>
       <r>   11.3242    0.0000 </r>
       <r>   12.6730    0.0000 </r>
       <r>   14.4836    0.0000 </r>
       <r>   14.4836    0.0000 </r>
       <r>   15.0654    0.0000 </r>
       <r>   17.6434    0.0000 </r>
       <r>   18.2184    0.0000 </r>
      </set>
      <set comment="kpoint 67">
       <r>   -1.8249    1.0000 </r>
       <r>    0.3766    1.0000 </r>
       <r>    3.2487    1.0000 </r>
       <r>    3.2487    1.0000 </r>
       <r>    5.4730    1.0000 </r>
       <r>    5.4730    1.0000 </r>
       <r>    8.2701    1.0000 </r>
       <r>   10.3616   -0.0194 </r>
       <r>   11.7699    0.0000 </r>
       <r>   11.7699    0.0000 </r>
       <r>   13.8228    0.0000 </r>
       <r>   13.8228    0.0000 </r>
       <r>   14.4307    0.0000 </r>
       <r>   15.5128    0.0000 </r>
       <r>   17.4255    0.0000 </r>
       <r>   18.1483    0.0000 </r>
      </set>
      <set comment="kpoint 68">
       <r>   -1.2014    1.0000 </r>
       <r>   -0.4671    1.0000 </r>
       <r>    3.7909    1.0000 </r>
       <r>    3.7909    1.0000 </r>
       <r>    4.7173    1.0000 </r>
       <r>    4.7173    1.0000 </r>
       <r>    8.8635    1.0000 </r>
       <r>    9.5613    1.0000 </r>
       <r>   12.2436    0.0000 </r>
       <r>   12.2436    0.0000 </r>
       <r>   13.2020    0.0000 </r>
       <r>   13.2020    0.0000 </r>
       <r>   16.0571    0.0000 </r>
       <r>   16.1747    0.0000 </r>
       <r>   16.6959    0.0000 </r>
       <r>   17.7350    0.0000 </r>
      </set>
      <set comment="kpoint 69">
       <r>   -1.9387    1.0000 </r>
       <r>    1.7150    1.0000 </r>
       <r>    1.7150    1.0000 </r>
       <r>    3.1378    1.0000 </r>
       <r>    5.3660    1.0000 </r>
       <r>    6.7622    1.0000 </r>
       <r>    6.7622    1.0000 </r>
       <r>   10.2585    0.1515 </r>
       <r>   11.6920    0.0000 </r>
       <r>   13.0147    0.0000 </r>
       <r>   13.0147    0.0000 </r>
       <r>   14.8525    0.0000 </r>
       <r>   14.8525    0.0000 </r>
       <r>   15.4058    0.0000 </r>
       <r>   17.8574    0.0000 </r>
       <r>   18.0306    0.0000 </r>
      </set>
      <set comment="kpoint 70">
       <r>   -1.4283    1.0000 </r>
       <r>    0.7673    1.0000 </r>
       <r>    2.2097    1.0000 </r>
       <r>    3.5677    1.0000 </r>
       <r>    4.5031    1.0000 </r>
       <r>    5.8452    1.0000 </r>
       <r>    7.2507    1.0000 </r>
       <r>    9.3524    1.0000 </r>
       <r>   12.1523    0.0000 </r>
       <r>   13.3750    0.0000 </r>
       <r>   14.2737    0.0000 </r>
       <r>   14.6883    0.0000 </r>
       <r>   15.2855    0.0000 </r>
       <r>   15.3881    0.0000 </r>
       <r>   17.1189    0.0000 </r>
       <r>   19.0584    0.0000 </r>
      </set>
      <set comment="kpoint 71">
       <r>   -0.8063    1.0000 </r>
       <r>   -0.0739    1.0000 </r>
       <r>    2.8050    1.0000 </r>
       <r>    3.4567    1.0000 </r>
       <r>    4.3945    1.0000 </r>
       <r>    5.0409    1.0000 </r>
       <r>    7.8463    1.0000 </r>
       <r>    8.5475    1.0000 </r>
       <r>   12.6941    0.0000 </r>
       <r>   13.2570    0.0000 </r>
       <r>   14.2256    0.0000 </r>
       <r>   14.7399    0.0000 </r>
       <r>   15.7209    0.0000 </r>
       <r>   16.3995    0.0000 </r>
       <r>   16.6554    0.0000 </r>
       <r>   18.2106    0.0000 </r>
      </set>
      <set comment="kpoint 72">
       <r>   -0.9195    1.0000 </r>
       <r>    1.2676    1.0000 </r>
       <r>    1.2676    1.0000 </r>
       <r>    3.3450    1.0000 </r>
       <r>    4.2865    1.0000 </r>
       <r>    6.3324    1.0000 </r>
       <r>    6.3324    1.0000 </r>
       <r>    8.4416    1.0000 </r>
       <r>   12.6202    0.0000 </r>
       <r>   14.4371    0.0000 </r>
       <r>   14.4371    0.0000 </r>
       <r>   15.4128    0.0000 </r>
       <r>   15.4128    0.0000 </r>
       <r>   16.2802    0.0000 </r>
       <r>   16.4190    0.0000 </r>
       <r>   18.9845    0.0000 </r>
      </set>
      <set comment="kpoint 73">
       <r>   -0.2996    1.0000 </r>
       <r>    0.4301    1.0000 </r>
       <r>    1.8750    1.0000 </r>
       <r>    2.5823    1.0000 </r>
       <r>    4.8238    1.0000 </r>
       <r>    5.5207    1.0000 </r>
       <r>    6.9291    1.0000 </r>
       <r>    7.6329    1.0000 </r>
       <r>   13.1746    0.0000 </r>
       <r>   13.8009    0.0000 </r>
       <r>   15.0618    0.0000 </r>
       <r>   15.7137    0.0000 </r>
       <r>   15.8379    0.0000 </r>
       <r>   16.2703    0.0000 </r>
       <r>   17.0670    0.0000 </r>
       <r>   18.5823    0.0000 </r>
      </set>
      <set comment="kpoint 74">
       <r>    0.3175    1.0000 </r>
       <r>    1.0434    1.0000 </r>
       <r>    1.0434    1.0000 </r>
       <r>    1.7632    1.0000 </r>
       <r>    5.4122    1.0000 </r>
       <r>    6.1165    1.0000 </r>
       <r>    6.1165    1.0000 </r>
       <r>    6.8216    1.0000 </r>
       <r>   13.7352    0.0000 </r>
       <r>   14.3728    0.0000 </r>
       <r>   14.3728    0.0000 </r>
       <r>   15.0152    0.0000 </r>
       <r>   17.3194    0.0000 </r>
       <r>   17.4070    0.0000 </r>
       <r>   17.4070    0.0000 </r>
       <r>   18.4596    0.0000 </r>
      </set>
      <set comment="kpoint 75">
       <r>   -1.5418    1.0000 </r>
       <r>    2.0983    1.0000 </r>
       <r>    2.0983    1.0000 </r>
       <r>    2.0983    1.0000 </r>
       <r>    5.7383    1.0000 </r>
       <r>    5.7383    1.0000 </r>
       <r>    5.7383    1.0000 </r>
       <r>    9.2482    1.0000 </r>
       <r>   13.3833    0.0000 </r>
       <r>   13.3833    0.0000 </r>
       <r>   13.3833    0.0000 </r>
       <r>   15.7513    0.0000 </r>
       <r>   15.7513    0.0000 </r>
       <r>   15.7513    0.0000 </r>
       <r>   18.4010    0.0000 </r>
       <r>   18.4014    0.0000 </r>
      </set>
      <set comment="kpoint 76">
       <r>   -1.0328    1.0000 </r>
       <r>    1.1556    1.0000 </r>
       <r>    2.5822    1.0000 </r>
       <r>    2.5822    1.0000 </r>
       <r>    4.8254    1.0000 </r>
       <r>    4.8254    1.0000 </r>
       <r>    6.2258    1.0000 </r>
       <r>    8.3365    1.0000 </r>
       <r>   13.8200    0.0000 </r>
       <r>   13.8200    0.0000 </r>
       <r>   15.1117    0.0000 </r>
       <r>   15.6485    0.0000 </r>
       <r>   15.6485    0.0000 </r>
       <r>   16.1929    0.0000 </r>
       <r>   18.0486    0.0000 </r>
       <r>   18.8806    0.0000 </r>
      </set>
      <set comment="kpoint 77">
       <r>   -0.4125    1.0000 </r>
       <r>    0.3176    1.0000 </r>
       <r>    3.1208    1.0000 </r>
       <r>    3.1208    1.0000 </r>
       <r>    4.0718    1.0000 </r>
       <r>    4.0718    1.0000 </r>
       <r>    6.8229    1.0000 </r>
       <r>    7.5272    1.0000 </r>
       <r>   14.2686    0.0000 </r>
       <r>   14.2686    0.0000 </r>
       <r>   15.1793    0.0000 </r>
       <r>   15.1793    0.0000 </r>
       <r>   16.7276    0.0000 </r>
       <r>   16.7979    0.0000 </r>
       <r>   17.3499    0.0000 </r>
       <r>   18.2233    0.0000 </r>
      </set>
      <set comment="kpoint 78">
       <r>   -0.5255    1.0000 </r>
       <r>    1.6514    1.0000 </r>
       <r>    1.6514    1.0000 </r>
       <r>    3.0085    1.0000 </r>
       <r>    3.9638    1.0000 </r>
       <r>    5.3054    1.0000 </r>
       <r>    5.3054    1.0000 </r>
       <r>    7.4204    1.0000 </r>
       <r>   14.2821    0.0000 </r>
       <r>   15.4562    0.0000 </r>
       <r>   15.4562    0.0000 </r>
       <r>   16.1707    0.0000 </r>
       <r>   16.1707    0.0000 </r>
       <r>   16.6174    0.0000 </r>
       <r>   17.7619    0.0000 </r>
       <r>   19.1874    0.0000 </r>
      </set>
      <set comment="kpoint 79">
       <r>    0.0923    1.0000 </r>
       <r>    0.8189    1.0000 </r>
       <r>    2.2473    1.0000 </r>
       <r>    2.8965    1.0000 </r>
       <r>    3.8553    1.0000 </r>
       <r>    4.4992    1.0000 </r>
       <r>    5.9018    1.0000 </r>
       <r>    6.6078    1.0000 </r>
       <r>   14.8030    0.0000 </r>
       <r>   15.3245    0.0000 </r>
       <r>   16.2416    0.0000 </r>
       <r>   16.4805    0.0000 </r>
       <r>   16.6188    0.0000 </r>
       <r>   17.1289    0.0000 </r>
       <r>   17.3425    0.0000 </r>
       <r>   18.6677    0.0000 </r>
      </set>
      <set comment="kpoint 80">
       <r>    0.7065    1.0000 </r>
       <r>    1.4274    1.0000 </r>
       <r>    1.4274    1.0000 </r>
       <r>    2.1355    1.0000 </r>
       <r>    4.3903    1.0000 </r>
       <r>    5.0881    1.0000 </r>
       <r>    5.0881    1.0000 </r>
       <r>    5.7935    1.0000 </r>
       <r>   15.3478    0.0000 </r>
       <r>   15.9317    0.0000 </r>
       <r>   15.9317    0.0000 </r>
       <r>   16.5386    0.0000 </r>
       <r>   17.6320    0.0000 </r>
       <r>   17.7080    0.0000 </r>
       <r>   17.7080    0.0000 </r>
       <r>   18.6717    0.0000 </r>
      </set>
      <set comment="kpoint 81">
       <r>   -0.0205    1.0000 </r>
       <r>    2.1354    1.0000 </r>
       <r>    2.1354    1.0000 </r>
       <r>    2.1354    1.0000 </r>
       <r>    4.3907    1.0000 </r>
       <r>    4.3907    1.0000 </r>
       <r>    4.3907    1.0000 </r>
       <r>    6.5003    1.0000 </r>
       <r>   15.9583    0.0000 </r>
       <r>   15.9583    0.0000 </r>
       <r>   15.9583    0.0000 </r>
       <r>   17.0444    0.0000 </r>
       <r>   17.0444    0.0000 </r>
       <r>   17.0444    0.0000 </r>
       <r>   18.7031    0.0000 </r>
       <r>   18.7031    0.0000 </r>
      </set>
      <set comment="kpoint 82">
       <r>    0.5940    1.0000 </r>
       <r>    1.3153    1.0000 </r>
       <r>    2.6715    1.0000 </r>
       <r>    2.6715    1.0000 </r>
       <r>    3.6388    1.0000 </r>
       <r>    3.6388    1.0000 </r>
       <r>    4.9796    1.0000 </r>
       <r>    5.6854    1.0000 </r>
       <r>   16.3742    0.0000 </r>
       <r>   16.3742    0.0000 </r>
       <r>   17.1021    0.0000 </r>
       <r>   17.1021    0.0000 </r>
       <r>   17.5330    0.0000 </r>
       <r>   17.5522    0.0000 </r>
       <r>   18.1210    0.0000 </r>
       <r>   18.6572    0.0000 </r>
      </set>
      <set comment="kpoint 83">
       <r>    1.2030    1.0000 </r>
       <r>    1.9114    1.0000 </r>
       <r>    1.9114    1.0000 </r>
       <r>    2.5589    1.0000 </r>
       <r>    3.5302    1.0000 </r>
       <r>    4.1726    1.0000 </r>
       <r>    4.1726    1.0000 </r>
       <r>    4.8708    1.0000 </r>
       <r>   16.9272    0.0000 </r>
       <r>   17.3741    0.0000 </r>
       <r>   17.3741    0.0000 </r>
       <r>   17.9194    0.0000 </r>
       <r>   18.0101    0.0000 </r>
       <r>   18.0540    0.0000 </r>
       <r>   18.0540    0.0000 </r>
       <r>   18.8148    0.0000 </r>
      </set>
      <set comment="kpoint 84">
       <r>    1.7993    1.0000 </r>
       <r>    2.4462    1.0000 </r>
       <r>    2.4462    1.0000 </r>
       <r>    2.4462    1.0000 </r>
       <r>    3.4217    1.0000 </r>
       <r>    3.4217    1.0000 </r>
       <r>    3.4217    1.0000 </r>
       <r>    4.0635    1.0000 </r>
       <r>   18.2658    0.0000 </r>
       <r>   18.2658    0.0000 </r>
       <r>   18.2658    0.0000 </r>
       <r>   18.4114    0.0000 </r>
       <r>   18.4114    0.0000 </r>
       <r>   18.4114    0.0000 </r>
       <r>   18.7317    0.0000 </r>
       <r>   18.7317    0.0000 </r>
      </set>
     </set>
    </set>
   </array>
  </eigenvalues>
  <separator name="orbital magnetization" >
   <v name="MAGDIPOLOUT">      0.00000000      0.00000000      0.00000000</v>
  </separator>
  <dos>
   <i name="efermi">     10.22209783 </i>
   <total>
    <array>
     <dimension dim="1">gridpoints</dimension>
     <dimension dim="2">spin</dimension>
     <field>energy</field>
     <field>total</field>
     <field>integrated</field>
     <set>
      <set comment="spin 1">
       <r>    -5.4626     0.0000     0.0000 </r>
       <r>    -5.3760     0.0000     0.0000 </r>
       <r>    -5.2894     0.0000     0.0000 </r>
       <r>    -5.2027     0.0000     0.0000 </r>
       <r>    -5.1161     0.0000     0.0000 </r>
       <r>    -5.0295     0.0000     0.0000 </r>
       <r>    -4.9429     0.0000     0.0000 </r>
       <r>    -4.8562     0.0000     0.0000 </r>
       <r>    -4.7696     0.0000     0.0000 </r>
       <r>    -4.6830     0.0000     0.0000 </r>
       <r>    -4.5963     0.0000     0.0000 </r>
       <r>    -4.5097     0.0001     0.0000 </r>
       <r>    -4.4231     0.0003     0.0000 </r>
       <r>    -4.3365    -0.0024    -0.0002 </r>
       <r>    -4.2498     0.0192     0.0015 </r>
       <r>    -4.1632     0.1248     0.0123 </r>
       <r>    -4.0766     0.1333     0.0238 </r>
       <r>    -3.9900     0.2234     0.0432 </r>
       <r>    -3.9033     0.3111     0.0701 </r>
       <r>    -3.8167     0.1243     0.0809 </r>
       <r>    -3.7301     0.3682     0.1128 </r>
       <r>    -3.6434     0.3892     0.1465 </r>
       <r>    -3.5568     0.2427     0.1676 </r>
       <r>    -3.4702     0.4936     0.2103 </r>
       <r>    -3.3836     0.2302     0.2303 </r>
       <r>    -3.2969     0.3601     0.2615 </r>
       <r>    -3.2103     0.5989     0.3133 </r>
       <r>    -3.1237     0.4200     0.3497 </r>
       <r>    -3.0370     0.5861     0.4005 </r>
       <r>    -2.9504     0.2466     0.4219 </r>
       <r>    -2.8638     0.2813     0.4462 </r>
       <r>    -2.7772     0.8050     0.5160 </r>
       <r>    -2.6905     0.5254     0.5615 </r>
       <r>    -2.6039     0.6058     0.6140 </r>
       <r>    -2.5173     0.6573     0.6709 </r>
       <r>    -2.4307     0.1620     0.6849 </r>
       <r>    -2.3440     0.6597     0.7421 </r>
       <r>    -2.2574     0.7597     0.8079 </r>
       <r>    -2.1708     0.5177     0.8527 </r>
       <r>    -2.0841     0.6832     0.9119 </r>
       <r>    -1.9975     0.3486     0.9421 </r>
       <r>    -1.9109     0.9841     1.0274 </r>
       <r>    -1.8243     0.7672     1.0938 </r>
       <r>    -1.7376     0.4910     1.1364 </r>
       <r>    -1.6510     0.9036     1.2146 </r>
       <r>    -1.5644     0.2554     1.2368 </r>
       <r>    -1.4778     0.4178     1.2730 </r>
       <r>    -1.3911     1.1173     1.3697 </r>
       <r>    -1.3045     0.6825     1.4289 </r>
       <r>    -1.2179     1.0419     1.5191 </r>
       <r>    -1.1312     0.8504     1.5928 </r>
       <r>    -1.0446     0.5433     1.6399 </r>
       <r>    -0.9580     0.6833     1.6990 </r>
       <r>    -0.8714     0.6326     1.7538 </r>
       <r>    -0.7847     0.8091     1.8239 </r>
       <r>    -0.6981     0.9822     1.9090 </r>
       <r>    -0.6115     0.2639     1.9319 </r>
       <r>    -0.5248     1.3028     2.0447 </r>
       <r>    -0.4382     0.8962     2.1224 </r>
       <r>    -0.3516     0.9858     2.2078 </r>
       <r>    -0.2650     0.9151     2.2871 </r>
       <r>    -0.1783     0.2464     2.3084 </r>
       <r>    -0.0917     0.9873     2.3939 </r>
       <r>    -0.0051     1.3315     2.5093 </r>
       <r>     0.0815     0.8417     2.5822 </r>
       <r>     0.1682     0.9872     2.6677 </r>
       <r>     0.2548     0.2585     2.6901 </r>
       <r>     0.3414     0.9596     2.7732 </r>
       <r>     0.4281     1.1170     2.8700 </r>
       <r>     0.5147     0.8665     2.9450 </r>
       <r>     0.6013     1.1820     3.0474 </r>
       <r>     0.6879     0.6784     3.1062 </r>
       <r>     0.7746     1.1259     3.2037 </r>
       <r>     0.8612     1.8789     3.3665 </r>
       <r>     0.9478     0.5131     3.4110 </r>
       <r>     1.0344     0.7799     3.4785 </r>
       <r>     1.1211     0.7451     3.5431 </r>
       <r>     1.2077     0.4050     3.5781 </r>
       <r>     1.2943     1.2827     3.6893 </r>
       <r>     1.3810     1.1342     3.7875 </r>
       <r>     1.4676     1.6390     3.9295 </r>
       <r>     1.5542     0.7730     3.9965 </r>
       <r>     1.6408     0.8650     4.0714 </r>
       <r>     1.7275     1.4218     4.1946 </r>
       <r>     1.8141     0.9818     4.2796 </r>
       <r>     1.9007     1.1969     4.3833 </r>
       <r>     1.9874     1.2945     4.4954 </r>
       <r>     2.0740     0.2639     4.5183 </r>
       <r>     2.1606     1.4112     4.6405 </r>
       <r>     2.2472     1.1550     4.7406 </r>
       <r>     2.3339     1.3293     4.8557 </r>
       <r>     2.4205     1.1863     4.9585 </r>
       <r>     2.5071     0.6622     5.0159 </r>
       <r>     2.5937     1.5849     5.1532 </r>
       <r>     2.6804     1.0875     5.2474 </r>
       <r>     2.7670     0.8775     5.3234 </r>
       <r>     2.8536     1.7309     5.4733 </r>
       <r>     2.9403     0.8194     5.5443 </r>
       <r>     3.0269     1.1465     5.6436 </r>
       <r>     3.1135     1.6373     5.7855 </r>
       <r>     3.2001     1.1385     5.8841 </r>
       <r>     3.2868     1.0735     5.9771 </r>
       <r>     3.3734     0.6746     6.0355 </r>
       <r>     3.4600     1.3123     6.1492 </r>
       <r>     3.5466     1.4008     6.2706 </r>
       <r>     3.6333     1.3667     6.3890 </r>
       <r>     3.7199     0.6153     6.4423 </r>
       <r>     3.8065     0.3384     6.4716 </r>
       <r>     3.8932     1.4963     6.6012 </r>
       <r>     3.9798     1.7713     6.7546 </r>
       <r>     4.0664     1.5220     6.8865 </r>
       <r>     4.1530     1.7000     7.0338 </r>
       <r>     4.2397     1.1975     7.1375 </r>
       <r>     4.3263     1.2192     7.2431 </r>
       <r>     4.4129     1.3747     7.3622 </r>
       <r>     4.4996     1.1834     7.4647 </r>
       <r>     4.5862     1.2908     7.5765 </r>
       <r>     4.6728     0.5864     7.6273 </r>
       <r>     4.7594     1.3533     7.7446 </r>
       <r>     4.8461     1.5962     7.8828 </r>
       <r>     4.9327     1.9460     8.0514 </r>
       <r>     5.0193     0.7823     8.1192 </r>
       <r>     5.1059     1.3311     8.2345 </r>
       <r>     5.1926     1.7083     8.3825 </r>
       <r>     5.2792     1.6369     8.5243 </r>
       <r>     5.3658     1.4491     8.6498 </r>
       <r>     5.4525     0.9651     8.7334 </r>
       <r>     5.5391     1.3476     8.8501 </r>
       <r>     5.6257     0.6619     8.9075 </r>
       <r>     5.7123     0.8502     8.9811 </r>
       <r>     5.7990     2.3754     9.1869 </r>
       <r>     5.8856     1.4121     9.3092 </r>
       <r>     5.9722     1.4790     9.4374 </r>
       <r>     6.0588     0.9299     9.5179 </r>
       <r>     6.1455     2.0000     9.6912 </r>
       <r>     6.2321     1.7596     9.8436 </r>
       <r>     6.3187     1.1961     9.9472 </r>
       <r>     6.4054     1.6554    10.0906 </r>
       <r>     6.4920     0.5381    10.1372 </r>
       <r>     6.5786     1.4627    10.2639 </r>
       <r>     6.6652     1.9199    10.4303 </r>
       <r>     6.7519     1.2025    10.5344 </r>
       <r>     6.8385     1.3525    10.6516 </r>
       <r>     6.9251     1.2108    10.7565 </r>
       <r>     7.0118     2.0982    10.9382 </r>
       <r>     7.0984     1.1321    11.0363 </r>
       <r>     7.1850     0.8286    11.1081 </r>
       <r>     7.2716     2.3005    11.3074 </r>
       <r>     7.3583     1.9239    11.4740 </r>
       <r>     7.4449     1.5195    11.6057 </r>
       <r>     7.5315     1.7397    11.7564 </r>
       <r>     7.6181     1.7871    11.9112 </r>
       <r>     7.7048     1.0664    12.0036 </r>
       <r>     7.7914     0.7922    12.0722 </r>
       <r>     7.8780     1.5302    12.2048 </r>
       <r>     7.9647     1.5054    12.3352 </r>
       <r>     8.0513     1.1079    12.4311 </r>
       <r>     8.1379     0.8994    12.5090 </r>
       <r>     8.2245     1.9511    12.6781 </r>
       <r>     8.3112     1.7205    12.8271 </r>
       <r>     8.3978     2.1963    13.0174 </r>
       <r>     8.4844     2.1320    13.2021 </r>
       <r>     8.5710     1.8254    13.3602 </r>
       <r>     8.6577     1.5154    13.4915 </r>
       <r>     8.7443     2.1473    13.6775 </r>
       <r>     8.8309     1.4200    13.8005 </r>
       <r>     8.9176     0.9272    13.8808 </r>
       <r>     9.0042     1.0117    13.9685 </r>
       <r>     9.0908     1.3972    14.0895 </r>
       <r>     9.1774     1.5470    14.2235 </r>
       <r>     9.2641     1.6634    14.3676 </r>
       <r>     9.3507     2.1532    14.5541 </r>
       <r>     9.4373     1.6923    14.7007 </r>
       <r>     9.5240     1.2664    14.8104 </r>
       <r>     9.6106     2.8017    15.0531 </r>
       <r>     9.6972     2.7017    15.2872 </r>
       <r>     9.7838     1.0083    15.3745 </r>
       <r>     9.8705     0.2431    15.3956 </r>
       <r>     9.9571     1.2433    15.5033 </r>
       <r>    10.0437     1.6611    15.6472 </r>
       <r>    10.1303     2.0994    15.8291 </r>
       <r>    10.2170     1.8862    15.9925 </r>
       <r>    10.3036     1.4705    16.1198 </r>
       <r>    10.3902     1.9634    16.2899 </r>
       <r>    10.4769     2.0506    16.4676 </r>
       <r>    10.5635     2.5110    16.6851 </r>
       <r>    10.6501     2.2278    16.8781 </r>
       <r>    10.7367     1.8620    17.0394 </r>
       <r>    10.8234     1.4715    17.1669 </r>
       <r>    10.9100     0.9912    17.2527 </r>
       <r>    10.9966     0.7939    17.3215 </r>
       <r>    11.0832     2.0873    17.5023 </r>
       <r>    11.1699     2.5997    17.7275 </r>
       <r>    11.2565     1.1883    17.8305 </r>
       <r>    11.3431     1.8343    17.9894 </r>
       <r>    11.4298     2.4261    18.1995 </r>
       <r>    11.5164     1.2632    18.3090 </r>
       <r>    11.6030     1.8766    18.4715 </r>
       <r>    11.6896     1.7170    18.6203 </r>
       <r>    11.7763     2.5976    18.8453 </r>
       <r>    11.8629     2.8804    19.0948 </r>
       <r>    11.9495     0.4866    19.1370 </r>
       <r>    12.0361     1.2116    19.2419 </r>
       <r>    12.1228     2.1866    19.4313 </r>
       <r>    12.2094     2.7029    19.6655 </r>
       <r>    12.2960     2.0935    19.8468 </r>
       <r>    12.3827     2.0332    20.0230 </r>
       <r>    12.4693     1.5230    20.1549 </r>
       <r>    12.5559     0.9911    20.2408 </r>
       <r>    12.6425     2.9263    20.4943 </r>
       <r>    12.7292     2.7727    20.7344 </r>
       <r>    12.8158     1.6307    20.8757 </r>
       <r>    12.9024     1.9625    21.0457 </r>
       <r>    12.9891     1.5733    21.1820 </r>
       <r>    13.0757     2.3450    21.3851 </r>
       <r>    13.1623     1.6663    21.5295 </r>
       <r>    13.2489     2.3458    21.7327 </r>
       <r>    13.3356     1.2646    21.8423 </r>
       <r>    13.4222     2.5688    22.0648 </r>
       <r>    13.5088     2.9004    22.3160 </r>
       <r>    13.5954     2.5946    22.5408 </r>
       <r>    13.6821     2.1374    22.7260 </r>
       <r>    13.7687     2.4324    22.9367 </r>
       <r>    13.8553     3.0153    23.1979 </r>
       <r>    13.9420     2.2186    23.3901 </r>
       <r>    14.0286     0.8449    23.4633 </r>
       <r>    14.1152     1.0260    23.5522 </r>
       <r>    14.2018     1.1428    23.6512 </r>
       <r>    14.2885     3.8373    23.9836 </r>
       <r>    14.3751     2.7174    24.2190 </r>
       <r>    14.4617     2.8061    24.4621 </r>
       <r>    14.5483     2.5144    24.6799 </r>
       <r>    14.6350     1.2058    24.7843 </r>
       <r>    14.7216     1.5967    24.9226 </r>
       <r>    14.8082     2.3412    25.1255 </r>
       <r>    14.8949     1.6612    25.2694 </r>
       <r>    14.9815     1.1169    25.3661 </r>
       <r>    15.0681     2.2998    25.5653 </r>
       <r>    15.1547     2.1528    25.7518 </r>
       <r>    15.2414     1.1653    25.8528 </r>
       <r>    15.3280     1.5991    25.9913 </r>
       <r>    15.4146     2.4530    26.2038 </r>
       <r>    15.5013     2.2036    26.3947 </r>
       <r>    15.5879     1.6885    26.5410 </r>
       <r>    15.6745     1.5797    26.6778 </r>
       <r>    15.7611     2.3336    26.8800 </r>
       <r>    15.8478     2.3917    27.0872 </r>
       <r>    15.9344     1.6867    27.2333 </r>
       <r>    16.0210     1.6421    27.3755 </r>
       <r>    16.1076     1.8790    27.5383 </r>
       <r>    16.1943     2.1104    27.7211 </r>
       <r>    16.2809     2.0157    27.8957 </r>
       <r>    16.3675     1.2912    28.0076 </r>
       <r>    16.4542     1.6663    28.1519 </r>
       <r>    16.5408     1.6850    28.2979 </r>
       <r>    16.6274     2.3356    28.5002 </r>
       <r>    16.7140     2.4981    28.7166 </r>
       <r>    16.8007     1.0899    28.8110 </r>
       <r>    16.8873     0.7201    28.8734 </r>
       <r>    16.9739     1.6388    29.0154 </r>
       <r>    17.0605     3.1662    29.2897 </r>
       <r>    17.1472     3.3222    29.5775 </r>
       <r>    17.2338     1.0357    29.6672 </r>
       <r>    17.3204     0.9194    29.7468 </r>
       <r>    17.4071     2.6713    29.9783 </r>
       <r>    17.4937     1.5932    30.1163 </r>
       <r>    17.5803     1.1130    30.2127 </r>
       <r>    17.6669     0.9535    30.2953 </r>
       <r>    17.7536     1.6708    30.4400 </r>
       <r>    17.8402     2.2317    30.6334 </r>
       <r>    17.9268     1.1312    30.7313 </r>
       <r>    18.0135     1.1007    30.8267 </r>
       <r>    18.1001     1.6209    30.9671 </r>
       <r>    18.1867     1.6249    31.1079 </r>
       <r>    18.2733     1.3244    31.2226 </r>
       <r>    18.3600     0.9726    31.3069 </r>
       <r>    18.4466     1.4537    31.4328 </r>
       <r>    18.5332     0.6629    31.4902 </r>
       <r>    18.6198     0.9326    31.5710 </r>
       <r>    18.7065     1.6106    31.7105 </r>
       <r>    18.7931     0.8327    31.7827 </r>
       <r>    18.8797     0.6144    31.8359 </r>
       <r>    18.9664     0.1990    31.8531 </r>
       <r>    19.0530     0.4034    31.8881 </r>
       <r>    19.1396     0.3197    31.9158 </r>
       <r>    19.2262     0.1768    31.9311 </r>
       <r>    19.3129     0.4781    31.9725 </r>
       <r>    19.3995     0.3299    32.0011 </r>
       <r>    19.4861    -0.0105    32.0002 </r>
       <r>    19.5727    -0.0030    31.9999 </r>
       <r>    19.6594     0.0012    32.0000 </r>
       <r>    19.7460     0.0000    32.0000 </r>
       <r>    19.8326     0.0000    32.0000 </r>
       <r>    19.9193     0.0000    32.0000 </r>
       <r>    20.0059     0.0000    32.0000 </r>
       <r>    20.0925     0.0000    32.0000 </r>
       <r>    20.1791     0.0000    32.0000 </r>
       <r>    20.2658     0.0000    32.0000 </r>
       <r>    20.3524     0.0000    32.0000 </r>
       <r>    20.4390     0.0000    32.0000 </r>
       <r>    20.5257     0.0000    32.0000 </r>
      </set>
     </set>
    </array>
   </total>
  </dos>
 </calculation>
 <structure name="finalpos" >
  <crystal>
   <varray name="basis" >
    <v>       3.86755521       0.00000000       0.00000000 </v>
    <v>       0.00000000       3.86755521       0.00000000 </v>
    <v>       0.00000000       0.00000000       3.86755521 </v>
   </varray>
   <i name="volume">     57.85082625 </i>
   <varray name="rec_basis" >
    <v>       0.25856127       0.00000000       0.00000000 </v>
    <v>       0.00000000       0.25856127       0.00000000 </v>
    <v>       0.00000000       0.00000000       0.25856127 </v>
   </varray>
  </crystal>
  <varray name="positions" >
   <v>       0.00000000       0.00000000       0.00000000 </v>
   <v>       0.50000000       0.50000000       0.00000000 </v>
   <v>       0.50000000       0.00000000       0.50000000 </v>
   <v>       0.00000000       0.50000000       0.50000000 </v>
  </varray>
 </structure>
</modeling>
