<?xml version="1.0" encoding="ISO-8859-1"?>
<modeling>
 <generator>
  <i name="program" type="string">vasp </i>
  <i name="version" type="string">5.4.1  </i>
  <i name="subversion" type="string">24Jun15 (build Jul  8 2015 13:29:37) complex                          parallel </i>
  <i name="platform" type="string">FX10FRT </i>
  <i name="date" type="string">2016 02 29 </i>
  <i name="time" type="string">21:53:42 </i>
 </generator>
 <incar>
  <i type="string" name="PREC">accurate</i>
  <i type="string" name="ALGO"> Normal</i>
  <i type="int" name="ISPIN">     1</i>
  <i type="int" name="IBRION">    -1</i>
  <i name="EDIFF">      0.00010000</i>
  <i type="int" name="NSW">     0</i>
  <i type="int" name="ISIF">     2</i>
  <i name="ENCUT">    400.00000000</i>
  <i type="int" name="ISMEAR">     2</i>
  <i name="SIGMA">      0.01000000</i>
  <i type="int" name="NWRITE">     1</i>
  <v type="int" name="KPOINT_BSE">    -1     0     0     0</v>
 </incar>
 <kpoints>
  <generation param="Monkhorst-Pack">
   <v type="int" name="divisions">       8        8        8 </v>
   <v name="usershift">      0.00000000       0.00000000       0.00000000 </v>
   <v name="genvec1">      0.12500000       0.00000000       0.00000000 </v>
   <v name="genvec2">      0.00000000       0.12500000       0.00000000 </v>
   <v name="genvec3">      0.00000000       0.00000000       0.12500000 </v>
   <v name="shift">      0.50000000       0.50000000       0.50000000 </v>
  </generation>
  <varray name="kpointlist" >
   <v>       0.06250000       0.06250000       0.06250000 </v>
   <v>       0.18750000       0.06250000       0.06250000 </v>
   <v>       0.31250000       0.06250000       0.06250000 </v>
   <v>       0.43750000       0.06250000       0.06250000 </v>
   <v>      -0.43750000       0.06250000       0.06250000 </v>
   <v>      -0.31250000       0.06250000       0.06250000 </v>
   <v>      -0.18750000       0.06250000       0.06250000 </v>
   <v>      -0.06250000       0.06250000       0.06250000 </v>
   <v>       0.06250000       0.18750000       0.06250000 </v>
   <v>       0.18750000       0.18750000       0.06250000 </v>
   <v>       0.31250000       0.18750000       0.06250000 </v>
   <v>       0.43750000       0.18750000       0.06250000 </v>
   <v>      -0.43750000       0.18750000       0.06250000 </v>
   <v>      -0.31250000       0.18750000       0.06250000 </v>
   <v>      -0.18750000       0.18750000       0.06250000 </v>
   <v>      -0.06250000       0.18750000       0.06250000 </v>
   <v>       0.06250000       0.31250000       0.06250000 </v>
   <v>       0.18750000       0.31250000       0.06250000 </v>
   <v>       0.31250000       0.31250000       0.06250000 </v>
   <v>       0.43750000       0.31250000       0.06250000 </v>
   <v>      -0.43750000       0.31250000       0.06250000 </v>
   <v>      -0.31250000       0.31250000       0.06250000 </v>
   <v>      -0.18750000       0.31250000       0.06250000 </v>
   <v>      -0.06250000       0.31250000       0.06250000 </v>
   <v>       0.06250000       0.43750000       0.06250000 </v>
   <v>       0.18750000       0.43750000       0.06250000 </v>
   <v>       0.31250000       0.43750000       0.06250000 </v>
   <v>       0.43750000       0.43750000       0.06250000 </v>
   <v>      -0.43750000       0.43750000       0.06250000 </v>
   <v>      -0.31250000       0.43750000       0.06250000 </v>
   <v>      -0.18750000       0.43750000       0.06250000 </v>
   <v>      -0.06250000       0.43750000       0.06250000 </v>
   <v>       0.06250000      -0.43750000       0.06250000 </v>
   <v>       0.18750000      -0.43750000       0.06250000 </v>
   <v>       0.31250000      -0.43750000       0.06250000 </v>
   <v>       0.43750000      -0.43750000       0.06250000 </v>
   <v>      -0.43750000      -0.43750000       0.06250000 </v>
   <v>      -0.31250000      -0.43750000       0.06250000 </v>
   <v>      -0.18750000      -0.43750000       0.06250000 </v>
   <v>      -0.06250000      -0.43750000       0.06250000 </v>
   <v>       0.06250000      -0.31250000       0.06250000 </v>
   <v>       0.18750000      -0.31250000       0.06250000 </v>
   <v>       0.31250000      -0.31250000       0.06250000 </v>
   <v>       0.43750000      -0.31250000       0.06250000 </v>
   <v>      -0.43750000      -0.31250000       0.06250000 </v>
   <v>      -0.31250000      -0.31250000       0.06250000 </v>
   <v>      -0.18750000      -0.31250000       0.06250000 </v>
   <v>      -0.06250000      -0.31250000       0.06250000 </v>
   <v>       0.06250000      -0.18750000       0.06250000 </v>
   <v>       0.18750000      -0.18750000       0.06250000 </v>
   <v>       0.31250000      -0.18750000       0.06250000 </v>
   <v>       0.43750000      -0.18750000       0.06250000 </v>
   <v>      -0.43750000      -0.18750000       0.06250000 </v>
   <v>      -0.31250000      -0.18750000       0.06250000 </v>
   <v>      -0.18750000      -0.18750000       0.06250000 </v>
   <v>      -0.06250000      -0.18750000       0.06250000 </v>
   <v>       0.06250000      -0.06250000       0.06250000 </v>
   <v>       0.18750000      -0.06250000       0.06250000 </v>
   <v>       0.31250000      -0.06250000       0.06250000 </v>
   <v>       0.43750000      -0.06250000       0.06250000 </v>
   <v>      -0.43750000      -0.06250000       0.06250000 </v>
   <v>      -0.31250000      -0.06250000       0.06250000 </v>
   <v>      -0.18750000      -0.06250000       0.06250000 </v>
   <v>      -0.06250000      -0.06250000       0.06250000 </v>
   <v>       0.06250000       0.06250000       0.18750000 </v>
   <v>       0.18750000       0.06250000       0.18750000 </v>
   <v>       0.31250000       0.06250000       0.18750000 </v>
   <v>       0.43750000       0.06250000       0.18750000 </v>
   <v>      -0.43750000       0.06250000       0.18750000 </v>
   <v>      -0.31250000       0.06250000       0.18750000 </v>
   <v>      -0.18750000       0.06250000       0.18750000 </v>
   <v>      -0.06250000       0.06250000       0.18750000 </v>
   <v>       0.06250000       0.18750000       0.18750000 </v>
   <v>       0.18750000       0.18750000       0.18750000 </v>
   <v>       0.31250000       0.18750000       0.18750000 </v>
   <v>       0.43750000       0.18750000       0.18750000 </v>
   <v>      -0.43750000       0.18750000       0.18750000 </v>
   <v>      -0.31250000       0.18750000       0.18750000 </v>
   <v>      -0.18750000       0.18750000       0.18750000 </v>
   <v>      -0.06250000       0.18750000       0.18750000 </v>
   <v>       0.06250000       0.31250000       0.18750000 </v>
   <v>       0.18750000       0.31250000       0.18750000 </v>
   <v>       0.31250000       0.31250000       0.18750000 </v>
   <v>       0.43750000       0.31250000       0.18750000 </v>
   <v>      -0.43750000       0.31250000       0.18750000 </v>
   <v>      -0.31250000       0.31250000       0.18750000 </v>
   <v>      -0.18750000       0.31250000       0.18750000 </v>
   <v>      -0.06250000       0.31250000       0.18750000 </v>
   <v>       0.06250000       0.43750000       0.18750000 </v>
   <v>       0.18750000       0.43750000       0.18750000 </v>
   <v>       0.31250000       0.43750000       0.18750000 </v>
   <v>       0.43750000       0.43750000       0.18750000 </v>
   <v>      -0.43750000       0.43750000       0.18750000 </v>
   <v>      -0.31250000       0.43750000       0.18750000 </v>
   <v>      -0.18750000       0.43750000       0.18750000 </v>
   <v>      -0.06250000       0.43750000       0.18750000 </v>
   <v>       0.06250000      -0.43750000       0.18750000 </v>
   <v>       0.18750000      -0.43750000       0.18750000 </v>
   <v>       0.31250000      -0.43750000       0.18750000 </v>
   <v>       0.43750000      -0.43750000       0.18750000 </v>
   <v>      -0.43750000      -0.43750000       0.18750000 </v>
   <v>      -0.31250000      -0.43750000       0.18750000 </v>
   <v>      -0.18750000      -0.43750000       0.18750000 </v>
   <v>      -0.06250000      -0.43750000       0.18750000 </v>
   <v>       0.06250000      -0.31250000       0.18750000 </v>
   <v>       0.18750000      -0.31250000       0.18750000 </v>
   <v>       0.31250000      -0.31250000       0.18750000 </v>
   <v>       0.43750000      -0.31250000       0.18750000 </v>
   <v>      -0.43750000      -0.31250000       0.18750000 </v>
   <v>      -0.31250000      -0.31250000       0.18750000 </v>
   <v>      -0.18750000      -0.31250000       0.18750000 </v>
   <v>      -0.06250000      -0.31250000       0.18750000 </v>
   <v>       0.06250000      -0.18750000       0.18750000 </v>
   <v>       0.18750000      -0.18750000       0.18750000 </v>
   <v>       0.31250000      -0.18750000       0.18750000 </v>
   <v>       0.43750000      -0.18750000       0.18750000 </v>
   <v>      -0.43750000      -0.18750000       0.18750000 </v>
   <v>      -0.31250000      -0.18750000       0.18750000 </v>
   <v>      -0.18750000      -0.18750000       0.18750000 </v>
   <v>      -0.06250000      -0.18750000       0.18750000 </v>
   <v>       0.06250000      -0.06250000       0.18750000 </v>
   <v>       0.18750000      -0.06250000       0.18750000 </v>
   <v>       0.31250000      -0.06250000       0.18750000 </v>
   <v>       0.43750000      -0.06250000       0.18750000 </v>
   <v>      -0.43750000      -0.06250000       0.18750000 </v>
   <v>      -0.31250000      -0.06250000       0.18750000 </v>
   <v>      -0.18750000      -0.06250000       0.18750000 </v>
   <v>      -0.06250000      -0.06250000       0.18750000 </v>
   <v>       0.06250000       0.06250000       0.31250000 </v>
   <v>       0.18750000       0.06250000       0.31250000 </v>
   <v>       0.31250000       0.06250000       0.31250000 </v>
   <v>       0.43750000       0.06250000       0.31250000 </v>
   <v>      -0.43750000       0.06250000       0.31250000 </v>
   <v>      -0.31250000       0.06250000       0.31250000 </v>
   <v>      -0.18750000       0.06250000       0.31250000 </v>
   <v>      -0.06250000       0.06250000       0.31250000 </v>
   <v>       0.06250000       0.18750000       0.31250000 </v>
   <v>       0.18750000       0.18750000       0.31250000 </v>
   <v>       0.31250000       0.18750000       0.31250000 </v>
   <v>       0.43750000       0.18750000       0.31250000 </v>
   <v>      -0.43750000       0.18750000       0.31250000 </v>
   <v>      -0.31250000       0.18750000       0.31250000 </v>
   <v>      -0.18750000       0.18750000       0.31250000 </v>
   <v>      -0.06250000       0.18750000       0.31250000 </v>
   <v>       0.06250000       0.31250000       0.31250000 </v>
   <v>       0.18750000       0.31250000       0.31250000 </v>
   <v>       0.31250000       0.31250000       0.31250000 </v>
   <v>       0.43750000       0.31250000       0.31250000 </v>
   <v>      -0.43750000       0.31250000       0.31250000 </v>
   <v>      -0.31250000       0.31250000       0.31250000 </v>
   <v>      -0.18750000       0.31250000       0.31250000 </v>
   <v>      -0.06250000       0.31250000       0.31250000 </v>
   <v>       0.06250000       0.43750000       0.31250000 </v>
   <v>       0.18750000       0.43750000       0.31250000 </v>
   <v>       0.31250000       0.43750000       0.31250000 </v>
   <v>       0.43750000       0.43750000       0.31250000 </v>
   <v>      -0.43750000       0.43750000       0.31250000 </v>
   <v>      -0.31250000       0.43750000       0.31250000 </v>
   <v>      -0.18750000       0.43750000       0.31250000 </v>
   <v>      -0.06250000       0.43750000       0.31250000 </v>
   <v>       0.06250000      -0.43750000       0.31250000 </v>
   <v>       0.18750000      -0.43750000       0.31250000 </v>
   <v>       0.31250000      -0.43750000       0.31250000 </v>
   <v>       0.43750000      -0.43750000       0.31250000 </v>
   <v>      -0.43750000      -0.43750000       0.31250000 </v>
   <v>      -0.31250000      -0.43750000       0.31250000 </v>
   <v>      -0.18750000      -0.43750000       0.31250000 </v>
   <v>      -0.06250000      -0.43750000       0.31250000 </v>
   <v>       0.06250000      -0.31250000       0.31250000 </v>
   <v>       0.18750000      -0.31250000       0.31250000 </v>
   <v>       0.31250000      -0.31250000       0.31250000 </v>
   <v>       0.43750000      -0.31250000       0.31250000 </v>
   <v>      -0.43750000      -0.31250000       0.31250000 </v>
   <v>      -0.31250000      -0.31250000       0.31250000 </v>
   <v>      -0.18750000      -0.31250000       0.31250000 </v>
   <v>      -0.06250000      -0.31250000       0.31250000 </v>
   <v>       0.06250000      -0.18750000       0.31250000 </v>
   <v>       0.18750000      -0.18750000       0.31250000 </v>
   <v>       0.31250000      -0.18750000       0.31250000 </v>
   <v>       0.43750000      -0.18750000       0.31250000 </v>
   <v>      -0.43750000      -0.18750000       0.31250000 </v>
   <v>      -0.31250000      -0.18750000       0.31250000 </v>
   <v>      -0.18750000      -0.18750000       0.31250000 </v>
   <v>      -0.06250000      -0.18750000       0.31250000 </v>
   <v>       0.06250000      -0.06250000       0.31250000 </v>
   <v>       0.18750000      -0.06250000       0.31250000 </v>
   <v>       0.31250000      -0.06250000       0.31250000 </v>
   <v>       0.43750000      -0.06250000       0.31250000 </v>
   <v>      -0.43750000      -0.06250000       0.31250000 </v>
   <v>      -0.31250000      -0.06250000       0.31250000 </v>
   <v>      -0.18750000      -0.06250000       0.31250000 </v>
   <v>      -0.06250000      -0.06250000       0.31250000 </v>
   <v>       0.06250000       0.06250000       0.43750000 </v>
   <v>       0.18750000       0.06250000       0.43750000 </v>
   <v>       0.31250000       0.06250000       0.43750000 </v>
   <v>       0.43750000       0.06250000       0.43750000 </v>
   <v>      -0.43750000       0.06250000       0.43750000 </v>
   <v>      -0.31250000       0.06250000       0.43750000 </v>
   <v>      -0.18750000       0.06250000       0.43750000 </v>
   <v>      -0.06250000       0.06250000       0.43750000 </v>
   <v>       0.06250000       0.18750000       0.43750000 </v>
   <v>       0.18750000       0.18750000       0.43750000 </v>
   <v>       0.31250000       0.18750000       0.43750000 </v>
   <v>       0.43750000       0.18750000       0.43750000 </v>
   <v>      -0.43750000       0.18750000       0.43750000 </v>
   <v>      -0.31250000       0.18750000       0.43750000 </v>
   <v>      -0.18750000       0.18750000       0.43750000 </v>
   <v>      -0.06250000       0.18750000       0.43750000 </v>
   <v>       0.06250000       0.31250000       0.43750000 </v>
   <v>       0.18750000       0.31250000       0.43750000 </v>
   <v>       0.31250000       0.31250000       0.43750000 </v>
   <v>       0.43750000       0.31250000       0.43750000 </v>
   <v>      -0.43750000       0.31250000       0.43750000 </v>
   <v>      -0.31250000       0.31250000       0.43750000 </v>
   <v>      -0.18750000       0.31250000       0.43750000 </v>
   <v>      -0.06250000       0.31250000       0.43750000 </v>
   <v>       0.06250000       0.43750000       0.43750000 </v>
   <v>       0.18750000       0.43750000       0.43750000 </v>
   <v>       0.31250000       0.43750000       0.43750000 </v>
   <v>       0.43750000       0.43750000       0.43750000 </v>
   <v>      -0.43750000       0.43750000       0.43750000 </v>
   <v>      -0.31250000       0.43750000       0.43750000 </v>
   <v>      -0.18750000       0.43750000       0.43750000 </v>
   <v>      -0.06250000       0.43750000       0.43750000 </v>
   <v>       0.06250000      -0.43750000       0.43750000 </v>
   <v>       0.18750000      -0.43750000       0.43750000 </v>
   <v>       0.31250000      -0.43750000       0.43750000 </v>
   <v>       0.43750000      -0.43750000       0.43750000 </v>
   <v>      -0.43750000      -0.43750000       0.43750000 </v>
   <v>      -0.31250000      -0.43750000       0.43750000 </v>
   <v>      -0.18750000      -0.43750000       0.43750000 </v>
   <v>      -0.06250000      -0.43750000       0.43750000 </v>
   <v>       0.06250000      -0.31250000       0.43750000 </v>
   <v>       0.18750000      -0.31250000       0.43750000 </v>
   <v>       0.31250000      -0.31250000       0.43750000 </v>
   <v>       0.43750000      -0.31250000       0.43750000 </v>
   <v>      -0.43750000      -0.31250000       0.43750000 </v>
   <v>      -0.31250000      -0.31250000       0.43750000 </v>
   <v>      -0.18750000      -0.31250000       0.43750000 </v>
   <v>      -0.06250000      -0.31250000       0.43750000 </v>
   <v>       0.06250000      -0.18750000       0.43750000 </v>
   <v>       0.18750000      -0.18750000       0.43750000 </v>
   <v>       0.31250000      -0.18750000       0.43750000 </v>
   <v>       0.43750000      -0.18750000       0.43750000 </v>
   <v>      -0.43750000      -0.18750000       0.43750000 </v>
   <v>      -0.31250000      -0.18750000       0.43750000 </v>
   <v>      -0.18750000      -0.18750000       0.43750000 </v>
   <v>      -0.06250000      -0.18750000       0.43750000 </v>
   <v>       0.06250000      -0.06250000       0.43750000 </v>
   <v>       0.18750000      -0.06250000       0.43750000 </v>
   <v>       0.31250000      -0.06250000       0.43750000 </v>
   <v>       0.43750000      -0.06250000       0.43750000 </v>
   <v>      -0.43750000      -0.06250000       0.43750000 </v>
   <v>      -0.31250000      -0.06250000       0.43750000 </v>
   <v>      -0.18750000      -0.06250000       0.43750000 </v>
   <v>      -0.06250000      -0.06250000       0.43750000 </v>
  </varray>
  <varray name="weights" >
   <v>       0.00390625 </v>
   <v>       0.00390625 </v>
   <v>       0.00390625 </v>
   <v>       0.00390625 </v>
   <v>       0.00390625 </v>
   <v>       0.00390625 </v>
   <v>       0.00390625 </v>
   <v>       0.00390625 </v>
   <v>       0.00390625 </v>
   <v>       0.00390625 </v>
   <v>       0.00390625 </v>
   <v>       0.00390625 </v>
   <v>       0.00390625 </v>
   <v>       0.00390625 </v>
   <v>       0.00390625 </v>
   <v>       0.00390625 </v>
   <v>       0.00390625 </v>
   <v>       0.00390625 </v>
   <v>       0.00390625 </v>
   <v>       0.00390625 </v>
   <v>       0.00390625 </v>
   <v>       0.00390625 </v>
   <v>       0.00390625 </v>
   <v>       0.00390625 </v>
   <v>       0.00390625 </v>
   <v>       0.00390625 </v>
   <v>       0.00390625 </v>
   <v>       0.00390625 </v>
   <v>       0.00390625 </v>
   <v>       0.00390625 </v>
   <v>       0.00390625 </v>
   <v>       0.00390625 </v>
   <v>       0.00390625 </v>
   <v>       0.00390625 </v>
   <v>       0.00390625 </v>
   <v>       0.00390625 </v>
   <v>       0.00390625 </v>
   <v>       0.00390625 </v>
   <v>       0.00390625 </v>
   <v>       0.00390625 </v>
   <v>       0.00390625 </v>
   <v>       0.00390625 </v>
   <v>       0.00390625 </v>
   <v>       0.00390625 </v>
   <v>       0.00390625 </v>
   <v>       0.00390625 </v>
   <v>       0.00390625 </v>
   <v>       0.00390625 </v>
   <v>       0.00390625 </v>
   <v>       0.00390625 </v>
   <v>       0.00390625 </v>
   <v>       0.00390625 </v>
   <v>       0.00390625 </v>
   <v>       0.00390625 </v>
   <v>       0.00390625 </v>
   <v>       0.00390625 </v>
   <v>       0.00390625 </v>
   <v>       0.00390625 </v>
   <v>       0.00390625 </v>
   <v>       0.00390625 </v>
   <v>       0.00390625 </v>
   <v>       0.00390625 </v>
   <v>       0.00390625 </v>
   <v>       0.00390625 </v>
   <v>       0.00390625 </v>
   <v>       0.00390625 </v>
   <v>       0.00390625 </v>
   <v>       0.00390625 </v>
   <v>       0.00390625 </v>
   <v>       0.00390625 </v>
   <v>       0.00390625 </v>
   <v>       0.00390625 </v>
   <v>       0.00390625 </v>
   <v>       0.00390625 </v>
   <v>       0.00390625 </v>
   <v>       0.00390625 </v>
   <v>       0.00390625 </v>
   <v>       0.00390625 </v>
   <v>       0.00390625 </v>
   <v>       0.00390625 </v>
   <v>       0.00390625 </v>
   <v>       0.00390625 </v>
   <v>       0.00390625 </v>
   <v>       0.00390625 </v>
   <v>       0.00390625 </v>
   <v>       0.00390625 </v>
   <v>       0.00390625 </v>
   <v>       0.00390625 </v>
   <v>       0.00390625 </v>
   <v>       0.00390625 </v>
   <v>       0.00390625 </v>
   <v>       0.00390625 </v>
   <v>       0.00390625 </v>
   <v>       0.00390625 </v>
   <v>       0.00390625 </v>
   <v>       0.00390625 </v>
   <v>       0.00390625 </v>
   <v>       0.00390625 </v>
   <v>       0.00390625 </v>
   <v>       0.00390625 </v>
   <v>       0.00390625 </v>
   <v>       0.00390625 </v>
   <v>       0.00390625 </v>
   <v>       0.00390625 </v>
   <v>       0.00390625 </v>
   <v>       0.00390625 </v>
   <v>       0.00390625 </v>
   <v>       0.00390625 </v>
   <v>       0.00390625 </v>
   <v>       0.00390625 </v>
   <v>       0.00390625 </v>
   <v>       0.00390625 </v>
   <v>       0.00390625 </v>
   <v>       0.00390625 </v>
   <v>       0.00390625 </v>
   <v>       0.00390625 </v>
   <v>       0.00390625 </v>
   <v>       0.00390625 </v>
   <v>       0.00390625 </v>
   <v>       0.00390625 </v>
   <v>       0.00390625 </v>
   <v>       0.00390625 </v>
   <v>       0.00390625 </v>
   <v>       0.00390625 </v>
   <v>       0.00390625 </v>
   <v>       0.00390625 </v>
   <v>       0.00390625 </v>
   <v>       0.00390625 </v>
   <v>       0.00390625 </v>
   <v>       0.00390625 </v>
   <v>       0.00390625 </v>
   <v>       0.00390625 </v>
   <v>       0.00390625 </v>
   <v>       0.00390625 </v>
   <v>       0.00390625 </v>
   <v>       0.00390625 </v>
   <v>       0.00390625 </v>
   <v>       0.00390625 </v>
   <v>       0.00390625 </v>
   <v>       0.00390625 </v>
   <v>       0.00390625 </v>
   <v>       0.00390625 </v>
   <v>       0.00390625 </v>
   <v>       0.00390625 </v>
   <v>       0.00390625 </v>
   <v>       0.00390625 </v>
   <v>       0.00390625 </v>
   <v>       0.00390625 </v>
   <v>       0.00390625 </v>
   <v>       0.00390625 </v>
   <v>       0.00390625 </v>
   <v>       0.00390625 </v>
   <v>       0.00390625 </v>
   <v>       0.00390625 </v>
   <v>       0.00390625 </v>
   <v>       0.00390625 </v>
   <v>       0.00390625 </v>
   <v>       0.00390625 </v>
   <v>       0.00390625 </v>
   <v>       0.00390625 </v>
   <v>       0.00390625 </v>
   <v>       0.00390625 </v>
   <v>       0.00390625 </v>
   <v>       0.00390625 </v>
   <v>       0.00390625 </v>
   <v>       0.00390625 </v>
   <v>       0.00390625 </v>
   <v>       0.00390625 </v>
   <v>       0.00390625 </v>
   <v>       0.00390625 </v>
   <v>       0.00390625 </v>
   <v>       0.00390625 </v>
   <v>       0.00390625 </v>
   <v>       0.00390625 </v>
   <v>       0.00390625 </v>
   <v>       0.00390625 </v>
   <v>       0.00390625 </v>
   <v>       0.00390625 </v>
   <v>       0.00390625 </v>
   <v>       0.00390625 </v>
   <v>       0.00390625 </v>
   <v>       0.00390625 </v>
   <v>       0.00390625 </v>
   <v>       0.00390625 </v>
   <v>       0.00390625 </v>
   <v>       0.00390625 </v>
   <v>       0.00390625 </v>
   <v>       0.00390625 </v>
   <v>       0.00390625 </v>
   <v>       0.00390625 </v>
   <v>       0.00390625 </v>
   <v>       0.00390625 </v>
   <v>       0.00390625 </v>
   <v>       0.00390625 </v>
   <v>       0.00390625 </v>
   <v>       0.00390625 </v>
   <v>       0.00390625 </v>
   <v>       0.00390625 </v>
   <v>       0.00390625 </v>
   <v>       0.00390625 </v>
   <v>       0.00390625 </v>
   <v>       0.00390625 </v>
   <v>       0.00390625 </v>
   <v>       0.00390625 </v>
   <v>       0.00390625 </v>
   <v>       0.00390625 </v>
   <v>       0.00390625 </v>
   <v>       0.00390625 </v>
   <v>       0.00390625 </v>
   <v>       0.00390625 </v>
   <v>       0.00390625 </v>
   <v>       0.00390625 </v>
   <v>       0.00390625 </v>
   <v>       0.00390625 </v>
   <v>       0.00390625 </v>
   <v>       0.00390625 </v>
   <v>       0.00390625 </v>
   <v>       0.00390625 </v>
   <v>       0.00390625 </v>
   <v>       0.00390625 </v>
   <v>       0.00390625 </v>
   <v>       0.00390625 </v>
   <v>       0.00390625 </v>
   <v>       0.00390625 </v>
   <v>       0.00390625 </v>
   <v>       0.00390625 </v>
   <v>       0.00390625 </v>
   <v>       0.00390625 </v>
   <v>       0.00390625 </v>
   <v>       0.00390625 </v>
   <v>       0.00390625 </v>
   <v>       0.00390625 </v>
   <v>       0.00390625 </v>
   <v>       0.00390625 </v>
   <v>       0.00390625 </v>
   <v>       0.00390625 </v>
   <v>       0.00390625 </v>
   <v>       0.00390625 </v>
   <v>       0.00390625 </v>
   <v>       0.00390625 </v>
   <v>       0.00390625 </v>
   <v>       0.00390625 </v>
   <v>       0.00390625 </v>
   <v>       0.00390625 </v>
   <v>       0.00390625 </v>
   <v>       0.00390625 </v>
   <v>       0.00390625 </v>
   <v>       0.00390625 </v>
   <v>       0.00390625 </v>
   <v>       0.00390625 </v>
   <v>       0.00390625 </v>
   <v>       0.00390625 </v>
   <v>       0.00390625 </v>
   <v>       0.00390625 </v>
   <v>       0.00390625 </v>
   <v>       0.00390625 </v>
  </varray>
 </kpoints>
 <parameters>
  <separator name="general" >
   <i type="string" name="SYSTEM">unknown system</i>
   <i type="logical" name="LCOMPAT"> F  </i>
  </separator>
  <separator name="electronic" >
   <i type="string" name="PREC">accura</i>
   <i name="ENMAX">    400.00000000</i>
   <i name="ENAUG">    322.06900000</i>
   <i name="EDIFF">      0.00010000</i>
   <i type="int" name="IALGO">    38</i>
   <i type="int" name="IWAVPR">    10</i>
   <i type="int" name="NBANDS">    24</i>
   <i name="NELECT">     32.00000000</i>
   <i type="int" name="TURBO">     0</i>
   <i type="int" name="IRESTART">     0</i>
   <i type="int" name="NREBOOT">     0</i>
   <i type="int" name="NMIN">     0</i>
   <i name="EREF">      0.00000000</i>
   <separator name="electronic smearing" >
    <i type="int" name="ISMEAR">     2</i>
    <i name="SIGMA">      0.01000000</i>
    <i name="KSPACING">      0.50000000</i>
    <i type="logical" name="KGAMMA"> T  </i>
   </separator>
   <separator name="electronic projectors" >
    <i type="logical" name="LREAL"> F  </i>
    <v name="ROPT">      0.00000000</v>
    <i type="int" name="LMAXPAW">  -100</i>
    <i type="int" name="LMAXMIX">     2</i>
    <i type="logical" name="NLSPLINE"> F  </i>
   </separator>
   <separator name="electronic startup" >
    <i type="int" name="ISTART">     0</i>
    <i type="int" name="ICHARG">     2</i>
    <i type="int" name="INIWAV">     1</i>
   </separator>
   <separator name="electronic spin" >
    <i type="int" name="ISPIN">     1</i>
    <i type="logical" name="LNONCOLLINEAR"> F  </i>
    <v name="MAGMOM">      1.00000000      1.00000000      1.00000000      1.00000000      1.00000000      1.00000000      1.00000000      1.00000000</v>
    <i name="NUPDOWN">     -1.00000000</i>
    <i type="logical" name="LSORBIT"> F  </i>
    <v name="SAXIS">      0.00000000      0.00000000      1.00000000</v>
    <i type="logical" name="LSPIRAL"> F  </i>
    <v name="QSPIRAL">      0.00000000      0.00000000      0.00000000</v>
    <i type="logical" name="LZEROZ"> F  </i>
   </separator>
   <separator name="electronic exchange-correlation" >
    <i type="logical" name="LASPH"> F  </i>
    <i type="logical" name="LMETAGGA"> F  </i>
   </separator>
   <separator name="electronic convergence" >
    <i type="int" name="NELM">    60</i>
    <i type="int" name="NELMDL">    -5</i>
    <i type="int" name="NELMIN">     2</i>
    <i name="ENINI">    400.00000000</i>
    <separator name="electronic convergence detail" >
     <i type="logical" name="LDIAG"> T  </i>
     <i type="logical" name="LSUBROT"> F  </i>
     <i name="WEIMIN">      0.00000000</i>
     <i name="EBREAK">      0.00000104</i>
     <i name="DEPER">      0.30000000</i>
     <i type="int" name="NRMM">     4</i>
     <i name="TIME">      0.40000000</i>
    </separator>
   </separator>
   <separator name="electronic mixer" >
    <i name="AMIX">      0.40000000</i>
    <i name="BMIX">      1.00000000</i>
    <i name="AMIN">      0.10000000</i>
    <i name="AMIX_MAG">      1.60000000</i>
    <i name="BMIX_MAG">      1.00000000</i>
    <separator name="electronic mixer details" >
     <i type="int" name="IMIX">     4</i>
     <i type="logical" name="MIXFIRST"> F  </i>
     <i type="int" name="MAXMIX">   -45</i>
     <i name="WC">    100.00000000</i>
     <i type="int" name="INIMIX">     1</i>
     <i type="int" name="MIXPRE">     1</i>
     <i type="int" name="MREMOVE">     5</i>
    </separator>
   </separator>
   <separator name="electronic dipolcorrection" >
    <i type="logical" name="LDIPOL"> F  </i>
    <i type="logical" name="LMONO"> F  </i>
    <i type="int" name="IDIPOL">     0</i>
    <i name="EPSILON">      1.00000000</i>
    <v name="DIPOL">   -100.00000000   -100.00000000   -100.00000000</v>
    <i name="EFIELD">      0.00000000</i>
   </separator>
  </separator>
  <separator name="grids" >
   <i type="int" name="NGX">    36</i>
   <i type="int" name="NGY">    36</i>
   <i type="int" name="NGZ">    36</i>
   <i type="int" name="NGXF">    72</i>
   <i type="int" name="NGYF">    72</i>
   <i type="int" name="NGZF">    72</i>
   <i type="logical" name="ADDGRID"> F  </i>
  </separator>
  <separator name="ionic" >
   <i type="int" name="NSW">     0</i>
   <i type="int" name="IBRION">    -1</i>
   <i type="int" name="ISIF">     2</i>
   <i name="PSTRESS">      0.00000000</i>
   <i name="EDIFFG">      0.00100000</i>
   <i type="int" name="NFREE">     0</i>
   <i name="POTIM">      0.50000000</i>
   <i name="SMASS">     -3.00000000</i>
   <i name="SCALEE">      1.00000000</i>
  </separator>
  <separator name="ionic md" >
   <i name="TEBEG">      0.00010000</i>
   <i name="TEEND">      0.00010000</i>
   <i type="int" name="NBLOCK">     1</i>
   <i type="int" name="KBLOCK">     1</i>
   <i type="int" name="NPACO">   256</i>
   <i name="APACO">     16.00000000</i>
  </separator>
  <separator name="symmetry" >
   <i type="int" name="ISYM">     2</i>
   <i name="SYMPREC">      0.00001000</i>
  </separator>
  <separator name="dos" >
   <i type="logical" name="LORBIT"> F  </i>
   <v name="RWIGS">     -1.00000000</v>
   <i type="int" name="NEDOS">   301</i>
   <i name="EMIN">     10.00000000</i>
   <i name="EMAX">    -10.00000000</i>
   <i name="EFERMI">      0.00000000</i>
  </separator>
  <separator name="writing" >
   <i type="int" name="NWRITE">     1</i>
   <i type="logical" name="LWAVE"> T  </i>
   <i type="logical" name="LCHARG"> T  </i>
   <i type="logical" name="LPARD"> F  </i>
   <i type="logical" name="LVTOT"> F  </i>
   <i type="logical" name="LVHAR"> F  </i>
   <i type="logical" name="LELF"> F  </i>
   <i type="logical" name="LOPTICS"> F  </i>
   <v name="STM">      0.00000000      0.00000000      0.00000000      0.00000000      0.00000000      0.00000000      0.00000000</v>
  </separator>
  <separator name="performance" >
   <i type="int" name="NPAR">     8</i>
   <i type="int" name="NSIM">     4</i>
   <i type="int" name="NBLK">    -1</i>
   <i type="logical" name="LPLANE"> T  </i>
   <i type="logical" name="LSCALAPACK"> T  </i>
   <i type="logical" name="LSCAAWARE"> F  </i>
   <i type="logical" name="LSCALU"> F  </i>
   <i type="logical" name="LASYNC"> F  </i>
   <i type="logical" name="LORBITALREAL"> F  </i>
  </separator>
  <separator name="miscellaneous" >
   <i type="int" name="IDIOT">     3</i>
   <i type="logical" name="LMUSIC"> F  </i>
   <v name="POMASS">     28.08500000</v>
   <v name="DARWINR">      0.00000000</v>
   <v name="DARWINV">      1.00000000</v>
   <i type="logical" name="LCORR"> T  </i>
  </separator>
  <i type="logical" name="GGA_COMPAT"> T  </i>
  <i type="logical" name="LBERRY"> F  </i>
  <i type="int" name="ICORELEVEL">     0</i>
  <i type="logical" name="LDAU"> F  </i>
  <i type="int" name="I_CONSTRAINED_M">     0</i>
  <separator name="electronic exchange-correlation" >
   <i type="string" name="GGA">--</i>
   <i type="int" name="VOSKOWN">     0</i>
   <i type="logical" name="LHFCALC"> F  </i>
   <i type="string" name="PRECFOCK"></i>
   <i type="logical" name="LSYMGRAD"> F  </i>
   <i type="logical" name="LHFONE"> F  </i>
   <i type="logical" name="LRHFCALC"> F  </i>
   <i type="logical" name="LTHOMAS"> F  </i>
   <i type="logical" name="LMODELHF"> F  </i>
   <i name="ENCUT4O">     -1.00000000</i>
   <i type="int" name="EXXOEP">     0</i>
   <i type="int" name="FOURORBIT">     0</i>
   <i name="AEXX">      0.00000000</i>
   <i name="HFALPHA">      0.00000000</i>
   <i name="MCALPHA">      0.00000000</i>
   <i name="ALDAX">      1.00000000</i>
   <i name="AGGAX">      1.00000000</i>
   <i name="ALDAC">      1.00000000</i>
   <i name="AGGAC">      1.00000000</i>
   <i type="int" name="NKREDX">     1</i>
   <i type="int" name="NKREDY">     1</i>
   <i type="int" name="NKREDZ">     1</i>
   <i type="logical" name="SHIFTRED"> F  </i>
   <i type="logical" name="ODDONLY"> F  </i>
   <i type="logical" name="EVENONLY"> F  </i>
   <i type="int" name="LMAXFOCK">     0</i>
   <i type="int" name="NMAXFOCKAE">     0</i>
   <i type="logical" name="LFOCKAEDFT"> F  </i>
   <i name="HFSCREEN">      0.00000000</i>
   <i name="HFSCREENC">      0.00000000</i>
   <i type="int" name="NBANDSGWLOW">     0</i>
  </separator>
  <separator name="vdW DFT" >
   <i type="logical" name="LUSE_VDW"> F  </i>
   <i name="Zab_VDW">     -0.84910000</i>
   <i name="PARAM1">      0.12340000</i>
   <i name="PARAM2">      1.00000000</i>
   <i name="PARAM3">      0.00000000</i>
  </separator>
  <separator name="model GW" >
   <i type="int" name="MODEL_GW">     0</i>
   <i name="MODEL_EPS0">     12.26874997</i>
   <i name="MODEL_ALPHA">      1.00000000</i>
  </separator>
  <separator name="linear response parameters" >
   <i type="logical" name="LEPSILON"> F  </i>
   <i type="logical" name="LRPA"> F  </i>
   <i type="logical" name="LNABLA"> F  </i>
   <i type="logical" name="LVEL"> F  </i>
   <i type="int" name="KINTER">     0</i>
   <i name="CSHIFT">      0.10000000</i>
   <i name="OMEGAMAX">     -1.00000000</i>
   <i name="DEG_THRESHOLD">      0.00200000</i>
  </separator>
  <separator name="orbital magnetization" >
   <i type="logical" name="NUCIND"> F  </i>
   <v name="MAGPOS">      0.00000000      0.00000000      0.00000000</v>
   <i type="logical" name="LNICSALL"> T  </i>
   <i type="logical" name="ORBITALMAG"> F  </i>
   <i type="logical" name="LMAGBLOCH"> F  </i>
   <i type="logical" name="LCHIMAG"> F  </i>
   <i type="logical" name="LGAUGE"> T  </i>
   <i type="int" name="MAGATOM">     0</i>
   <v name="MAGDIPOL">      0.00000000      0.00000000      0.00000000</v>
   <v name="AVECCONST">      0.00000000      0.00000000      0.00000000</v>
  </separator>
  <separator name="response functions" >
   <i type="logical" name="LADDER"> F  </i>
   <i type="logical" name="LFXC"> F  </i>
   <i type="logical" name="LHARTREE"> T  </i>
   <i type="int" name="IBSE">     0</i>
   <v type="int" name="KPOINT">    -1     0     0     0</v>
   <i type="logical" name="LTCTE"> F  </i>
   <i type="logical" name="LTETE"> F  </i>
   <i type="logical" name="LTRIPLET"> F  </i>
   <i type="logical" name="LFXCEPS"> F  </i>
   <i type="logical" name="LFXHEG"> F  </i>
   <i type="int" name="NATURALO">     0</i>
   <i type="logical" name="L2ORDER"> F  </i>
   <i type="logical" name="LUSEW"> F  </i>
   <i name="ENCUTGW">     -2.00000000</i>
   <i name="ENCUTGWSOFT">     -2.00000000</i>
   <i name="ENCUTLF">     -1.00000000</i>
   <i type="int" name="LMAXMP2">    -1</i>
   <i name="SCISSOR">      0.00000000</i>
   <i type="int" name="NOMEGA">     0</i>
   <i type="int" name="NOMEGAR">     0</i>
   <i type="int" name="NBANDSGW">    -1</i>
   <i type="int" name="NBANDSO">    -1</i>
   <i type="int" name="NBANDSV">    -1</i>
   <i type="int" name="NELM">     1</i>
   <i type="int" name="NELMHF">     1</i>
   <i type="int" name="DIM">     3</i>
   <i type="int" name="ANTIRES">     0</i>
   <i name="OMEGAMAX">    -30.00000000</i>
   <i name="OMEGAMIN">    -30.00000000</i>
   <i name="OMEGATL">   -200.00000000</i>
   <i type="int" name="OMEGAGRID">     0</i>
   <i name="CSHIFT">     -0.10000000</i>
   <i type="logical" name="SELFENERGY"> F  </i>
   <i type="logical" name="LSPECTRAL"> F  </i>
   <i type="logical" name="LSPECTRALGW"> F  </i>
   <i type="logical" name="LSINGLES"> F  </i>
   <i type="logical" name="LFERMIGW"> F  </i>
   <i type="logical" name="ODDONLYGW"> F  </i>
   <i type="logical" name="EVENONLYGW"> F  </i>
   <i type="int" name="NKREDLFX">     1</i>
   <i type="int" name="NKREDLFY">     1</i>
   <i type="int" name="NKREDLFZ">     1</i>
   <i type="int" name="MAXMEM">  1800</i>
   <i type="int" name="TELESCOPE">     0</i>
   <i type="int" name="TAUPAR">     1</i>
   <i type="int" name="OMEGAPAR">    -1</i>
   <i name="LAMBDA">      1.00000000</i>
  </separator>
  <separator name="External order field" >
   <i name="OFIELD_KAPPA">      0.00000000</i>
   <v name="OFIELD_K">      0.00000000      0.00000000      0.00000000</v>
   <i name="OFIELD_Q6_NEAR">      0.00000000</i>
   <i name="OFIELD_Q6_FAR">      0.00000000</i>
   <i name="OFIELD_A">      0.00000000</i>
  </separator>
 </parameters>
 <atominfo>
  <atoms>       8 </atoms>
  <types>       1 </types>
  <array name="atoms" >
   <dimension dim="1">ion</dimension>
   <field type="string">element</field>
   <field type="int">atomtype</field>
   <set>
    <rc><c>Si</c><c>   1</c></rc>
    <rc><c>Si</c><c>   1</c></rc>
    <rc><c>Si</c><c>   1</c></rc>
    <rc><c>Si</c><c>   1</c></rc>
    <rc><c>Si</c><c>   1</c></rc>
    <rc><c>Si</c><c>   1</c></rc>
    <rc><c>Si</c><c>   1</c></rc>
    <rc><c>Si</c><c>   1</c></rc>
   </set>
  </array>
  <array name="atomtypes" >
   <dimension dim="1">type</dimension>
   <field type="int">atomspertype</field>
   <field type="string">element</field>
   <field>mass</field>
   <field>valence</field>
   <field type="string">pseudopotential</field>
   <set>
    <rc><c>   8</c><c>Si</c><c>     28.08500000</c><c>      4.00000000</c><c>  PAW_PBE Si 05Jan2001                  </c></rc>
   </set>
  </array>
 </atominfo>
 <structure name="initialpos" >
  <crystal>
   <varray name="basis" >
    <v>       5.46906415       0.00000000       0.00000000 </v>
    <v>       0.00000000       5.46906415       0.00000000 </v>
    <v>       0.00000000       0.00000000       5.46906415 </v>
   </varray>
   <i name="volume">    163.58333295 </i>
   <varray name="rec_basis" >
    <v>       0.18284664       0.00000000       0.00000000 </v>
    <v>       0.00000000       0.18284664       0.00000000 </v>
    <v>       0.00000000       0.00000000       0.18284664 </v>
   </varray>
  </crystal>
  <varray name="positions" >
   <v>       0.15215353       0.01899626       0.08018746 </v>
   <v>       0.39816167       0.24049089       0.35432692 </v>
   <v>       0.65073778       0.49969893       0.10008936 </v>
   <v>       0.90331199       0.76708508       0.33436006 </v>
   <v>       0.64616410       0.00808402       0.60493392 </v>
   <v>       0.89777757       0.26972910       0.82488646 </v>
   <v>       0.14658258       0.49829003       0.58308930 </v>
   <v>       0.38824209       0.73461992       0.84623054 </v>
  </varray>
 </structure>
 <calculation>
  <scstep>
   <time name="dav">    6.15    6.21</time>
   <time name="total">    6.22    6.30</time>
   <energy>
    <i name="alphaZ">     13.17029267 </i>
    <i name="ewald">   -907.68992190 </i>
    <i name="hartreedc">    -45.39545530 </i>
    <i name="XCdc">    -74.75465178 </i>
    <i name="pawpsdc">    704.99039692 </i>
    <i name="pawaedc">   -564.24414232 </i>
    <i name="eentropy">      0.00001687 </i>
    <i name="bandstr">    104.00030075 </i>
    <i name="atom">    824.52596983 </i>
    <i name="e_fr_energy">     54.60280573 </i>
    <i name="e_wo_entrp">     54.60278886 </i>
    <i name="e_0_energy">     54.60280152 </i>
   </energy>
  </scstep>
  <scstep>
   <time name="dav">    7.55    7.56</time>
   <time name="total">    7.57    7.59</time>
   <energy>
    <i name="e_fr_energy">    -39.61762285 </i>
    <i name="e_wo_entrp">    -39.61762285 </i>
    <i name="e_0_energy">    -39.61762285 </i>
   </energy>
  </scstep>
  <scstep>
   <time name="dav">    7.53    7.53</time>
   <time name="total">    7.54    7.55</time>
   <energy>
    <i name="e_fr_energy">    -43.78056736 </i>
    <i name="e_wo_entrp">    -43.78056736 </i>
    <i name="e_0_energy">    -43.78056736 </i>
   </energy>
  </scstep>
  <scstep>
   <time name="dav">    7.27    7.28</time>
   <time name="total">    7.28    7.30</time>
   <energy>
    <i name="e_fr_energy">    -43.85096044 </i>
    <i name="e_wo_entrp">    -43.85096519 </i>
    <i name="e_0_energy">    -43.85096162 </i>
   </energy>
  </scstep>
  <scstep>
   <time name="dav">    7.58    7.59</time>
   <time name="total">    7.81    7.82</time>
   <energy>
    <i name="e_fr_energy">    -43.85269684 </i>
    <i name="e_wo_entrp">    -43.85269684 </i>
    <i name="e_0_energy">    -43.85269684 </i>
   </energy>
  </scstep>
  <scstep>
   <time name="dav">    7.04    7.03</time>
   <time name="total">    7.26    7.28</time>
   <energy>
    <i name="e_fr_energy">    -43.38126854 </i>
    <i name="e_wo_entrp">    -43.38126854 </i>
    <i name="e_0_energy">    -43.38126854 </i>
   </energy>
  </scstep>
  <scstep>
   <time name="dav">    6.97    6.97</time>
   <time name="total">    7.20    7.23</time>
   <energy>
    <i name="e_fr_energy">    -43.16833065 </i>
    <i name="e_wo_entrp">    -43.16833065 </i>
    <i name="e_0_energy">    -43.16833065 </i>
   </energy>
  </scstep>
  <scstep>
   <time name="dav">    7.32    7.33</time>
   <time name="total">    7.57    7.58</time>
   <energy>
    <i name="e_fr_energy">    -43.17212995 </i>
    <i name="e_wo_entrp">    -43.17212995 </i>
    <i name="e_0_energy">    -43.17212995 </i>
   </energy>
  </scstep>
  <scstep>
   <time name="dav">    7.46    7.46</time>
   <time name="total">    7.70    7.71</time>
   <energy>
    <i name="e_fr_energy">    -43.17317334 </i>
    <i name="e_wo_entrp">    -43.17317334 </i>
    <i name="e_0_energy">    -43.17317334 </i>
   </energy>
  </scstep>
  <scstep>
   <time name="dav">    7.09    7.10</time>
   <time name="total">    7.34    7.35</time>
   <energy>
    <i name="e_fr_energy">    -43.17333373 </i>
    <i name="e_wo_entrp">    -43.17333373 </i>
    <i name="e_0_energy">    -43.17333373 </i>
   </energy>
  </scstep>
  <scstep>
   <time name="dav">    5.86    5.87</time>
   <time name="total">    5.91    5.92</time>
   <energy>
    <i name="alphaZ">     13.17029267 </i>
    <i name="ewald">   -907.68992190 </i>
    <i name="hartreedc">    -60.57828288 </i>
    <i name="XCdc">    -72.28106497 </i>
    <i name="pawpsdc">   3297.38088730 </i>
    <i name="pawaedc">  -3157.44958787 </i>
    <i name="eentropy">      0.00000000 </i>
    <i name="bandstr">     19.74830958 </i>
    <i name="atom">    824.52596983 </i>
    <i name="e_fr_energy">    -43.17339825 </i>
    <i name="e_wo_entrp">    -43.17339825 </i>
    <i name="e_0_energy">    -43.17339825 </i>
   </energy>
  </scstep>
  <structure>
   <crystal>
    <varray name="basis" >
     <v>       5.46906415       0.00000000       0.00000000 </v>
     <v>       0.00000000       5.46906415       0.00000000 </v>
     <v>       0.00000000       0.00000000       5.46906415 </v>
    </varray>
    <i name="volume">    163.58333295 </i>
    <varray name="rec_basis" >
     <v>       0.18284664       0.00000000       0.00000000 </v>
     <v>       0.00000000       0.18284664       0.00000000 </v>
     <v>       0.00000000       0.00000000       0.18284664 </v>
    </varray>
   </crystal>
   <varray name="positions" >
    <v>       0.15215353       0.01899626       0.08018746 </v>
    <v>       0.39816167       0.24049089       0.35432692 </v>
    <v>       0.65073778       0.49969893       0.10008936 </v>
    <v>       0.90331199       0.76708508       0.33436006 </v>
    <v>       0.64616410       0.00808402       0.60493392 </v>
    <v>       0.89777757       0.26972910       0.82488646 </v>
    <v>       0.14658258       0.49829003       0.58308930 </v>
    <v>       0.38824209       0.73461992       0.84623054 </v>
   </varray>
  </structure>
  <varray name="forces" >
   <v>      -0.25449655      -0.52892701      -0.07656905 </v>
   <v>       0.25048071       0.50751875      -0.75548604 </v>
   <v>      -0.13072839       0.07784409       0.06604638 </v>
   <v>      -0.23988173       0.01028700       0.22733070 </v>
   <v>       0.03706539      -1.22914622      -0.16133388 </v>
   <v>      -0.28796591      -0.49464647       1.18581410 </v>
   <v>       0.09170560       0.87269604      -0.57213454 </v>
   <v>       0.53382089       0.78437381       0.08633233 </v>
  </varray>
  <varray name="stress" >
   <v>       1.21227280       4.58214159       4.93274858 </v>
   <v>       4.58214172      -1.16097273       1.85016759 </v>
   <v>       4.93274860       1.85016764       0.40209427 </v>
  </varray>
  <energy>
   <i name="e_fr_energy">    -43.17339825 </i>
   <i name="e_wo_entrp">    -43.17339825 </i>
   <i name="e_0_energy">      0.00000000 </i>
  </energy>
  <time name="totalsc">   84.65   85.01</time>
  <eigenvalues>
   <array>
    <dimension dim="1">band</dimension>
    <dimension dim="2">kpoint</dimension>
    <dimension dim="3">spin</dimension>
    <field>eigene</field>
    <field>occ</field>
    <set>
     <set comment="spin 1">
      <set comment="kpoint 1">
       <r>   -6.1640    1.0000 </r>
       <r>   -2.7538    1.0000 </r>
       <r>   -2.5837    1.0000 </r>
       <r>   -2.4367    1.0000 </r>
       <r>   -1.7951    1.0000 </r>
       <r>   -1.6114    1.0000 </r>
       <r>   -1.4728    1.0000 </r>
       <r>    2.5358    1.0000 </r>
       <r>    2.6073    1.0000 </r>
       <r>    2.6412    1.0000 </r>
       <r>    2.8570    1.0000 </r>
       <r>    2.9155    1.0000 </r>
       <r>    2.9266    1.0000 </r>
       <r>    5.0050    1.0000 </r>
       <r>    5.4847    1.0000 </r>
       <r>    5.6348    1.0000 </r>
       <r>    6.2888    0.0000 </r>
       <r>    6.3666    0.0000 </r>
       <r>    6.4581    0.0000 </r>
       <r>    6.6157    0.0000 </r>
       <r>    6.7999    0.0000 </r>
       <r>    6.8307    0.0000 </r>
       <r>    8.2585    0.0000 </r>
       <r>    8.2769    0.0000 </r>
      </set>
      <set comment="kpoint 2">
       <r>   -6.0300    1.0000 </r>
       <r>   -3.4565    1.0000 </r>
       <r>   -2.6582    1.0000 </r>
       <r>   -2.4086    1.0000 </r>
       <r>   -1.7448    1.0000 </r>
       <r>   -1.4665    1.0000 </r>
       <r>   -0.6253    1.0000 </r>
       <r>    2.1055    1.0000 </r>
       <r>    2.2429    1.0000 </r>
       <r>    2.6621    1.0000 </r>
       <r>    2.7811    1.0000 </r>
       <r>    2.8212    1.0000 </r>
       <r>    3.0264    1.0000 </r>
       <r>    4.2738    1.0000 </r>
       <r>    5.1170    1.0000 </r>
       <r>    5.3647    1.0000 </r>
       <r>    6.4071    0.0000 </r>
       <r>    6.6999    0.0000 </r>
       <r>    6.8800    0.0000 </r>
       <r>    7.0893    0.0000 </r>
       <r>    7.4298    0.0000 </r>
       <r>    7.6001    0.0000 </r>
       <r>    8.0134    0.0000 </r>
       <r>    8.5974    0.0000 </r>
      </set>
      <set comment="kpoint 3">
       <r>   -5.7641    1.0000 </r>
       <r>   -4.2032    1.0000 </r>
       <r>   -2.5635    1.0000 </r>
       <r>   -2.3598    1.0000 </r>
       <r>   -1.6901    1.0000 </r>
       <r>   -1.4655    1.0000 </r>
       <r>    0.4104    1.0000 </r>
       <r>    1.7506    1.0000 </r>
       <r>    1.8744    1.0000 </r>
       <r>    2.3940    1.0000 </r>
       <r>    2.5199    1.0000 </r>
       <r>    3.0160    1.0000 </r>
       <r>    3.2249    1.0000 </r>
       <r>    3.4356    1.0000 </r>
       <r>    4.5885    1.0000 </r>
       <r>    4.7282    1.0000 </r>
       <r>    6.5294    0.0000 </r>
       <r>    7.4411    0.0000 </r>
       <r>    7.5986    0.0000 </r>
       <r>    7.7686    0.0000 </r>
       <r>    7.9032    0.0000 </r>
       <r>    8.5044    0.0000 </r>
       <r>    8.7365    0.0000 </r>
       <r>    9.3253    0.0000 </r>
      </set>
      <set comment="kpoint 4">
       <r>   -5.3729    1.0000 </r>
       <r>   -4.8374    1.0000 </r>
       <r>   -2.4659    1.0000 </r>
       <r>   -2.3455    1.0000 </r>
       <r>   -1.6254    1.0000 </r>
       <r>   -1.5019    1.0000 </r>
       <r>    1.4048    1.0000 </r>
       <r>    1.5932    1.0000 </r>
       <r>    1.7036    1.0000 </r>
       <r>    2.1864    1.0000 </r>
       <r>    2.2670    1.0000 </r>
       <r>    2.4675    1.0000 </r>
       <r>    3.4045    1.0000 </r>
       <r>    3.6073    1.0000 </r>
       <r>    4.0520    1.0000 </r>
       <r>    4.1016    1.0000 </r>
       <r>    6.7822    0.0000 </r>
       <r>    7.1396    0.0000 </r>
       <r>    8.3121    0.0000 </r>
       <r>    8.9008    0.0000 </r>
       <r>    9.1080    0.0000 </r>
       <r>    9.1891    0.0000 </r>
       <r>    9.6668    0.0000 </r>
       <r>    9.9387    0.0000 </r>
      </set>
      <set comment="kpoint 5">
       <r>   -5.3765    1.0000 </r>
       <r>   -4.8323    1.0000 </r>
       <r>   -2.4503    1.0000 </r>
       <r>   -2.3582    1.0000 </r>
       <r>   -1.6068    1.0000 </r>
       <r>   -1.5301    1.0000 </r>
       <r>    1.3652    1.0000 </r>
       <r>    1.6066    1.0000 </r>
       <r>    1.6993    1.0000 </r>
       <r>    2.1790    1.0000 </r>
       <r>    2.2566    1.0000 </r>
       <r>    2.5514    1.0000 </r>
       <r>    3.4886    1.0000 </r>
       <r>    3.6024    1.0000 </r>
       <r>    3.9528    1.0000 </r>
       <r>    4.0899    1.0000 </r>
       <r>    6.7669    0.0000 </r>
       <r>    7.1545    0.0000 </r>
       <r>    8.2942    0.0000 </r>
       <r>    8.8317    0.0000 </r>
       <r>    9.0331    0.0000 </r>
       <r>    9.2092    0.0000 </r>
       <r>    9.7720    0.0000 </r>
       <r>   10.0256    0.0000 </r>
      </set>
      <set comment="kpoint 6">
       <r>   -5.7666    1.0000 </r>
       <r>   -4.1960    1.0000 </r>
       <r>   -2.5447    1.0000 </r>
       <r>   -2.3707    1.0000 </r>
       <r>   -1.6791    1.0000 </r>
       <r>   -1.4987    1.0000 </r>
       <r>    0.3675    1.0000 </r>
       <r>    1.7921    1.0000 </r>
       <r>    1.9229    1.0000 </r>
       <r>    2.3629    1.0000 </r>
       <r>    2.4790    1.0000 </r>
       <r>    3.0651    1.0000 </r>
       <r>    3.2400    1.0000 </r>
       <r>    3.5524    1.0000 </r>
       <r>    4.5603    1.0000 </r>
       <r>    4.6055    1.0000 </r>
       <r>    6.5145    0.0000 </r>
       <r>    7.4168    0.0000 </r>
       <r>    7.5851    0.0000 </r>
       <r>    7.7531    0.0000 </r>
       <r>    7.8102    0.0000 </r>
       <r>    8.5775    0.0000 </r>
       <r>    8.8051    0.0000 </r>
       <r>    9.3453    0.0000 </r>
      </set>
      <set comment="kpoint 7">
       <r>   -6.0314    1.0000 </r>
       <r>   -3.4472    1.0000 </r>
       <r>   -2.6454    1.0000 </r>
       <r>   -2.4118    1.0000 </r>
       <r>   -1.7430    1.0000 </r>
       <r>   -1.4892    1.0000 </r>
       <r>   -0.6555    1.0000 </r>
       <r>    2.1544    1.0000 </r>
       <r>    2.3032    1.0000 </r>
       <r>    2.6373    1.0000 </r>
       <r>    2.7476    1.0000 </r>
       <r>    2.8207    1.0000 </r>
       <r>    3.0275    1.0000 </r>
       <r>    4.4229    1.0000 </r>
       <r>    5.1183    1.0000 </r>
       <r>    5.1856    1.0000 </r>
       <r>    6.3943    0.0000 </r>
       <r>    6.6311    0.0000 </r>
       <r>    6.8384    0.0000 </r>
       <r>    7.0506    0.0000 </r>
       <r>    7.4951    0.0000 </r>
       <r>    7.6693    0.0000 </r>
       <r>    8.0107    0.0000 </r>
       <r>    8.6121    0.0000 </r>
      </set>
      <set comment="kpoint 8">
       <r>   -6.1644    1.0000 </r>
       <r>   -2.7506    1.0000 </r>
       <r>   -2.5765    1.0000 </r>
       <r>   -2.4271    1.0000 </r>
       <r>   -1.8022    1.0000 </r>
       <r>   -1.6267    1.0000 </r>
       <r>   -1.4815    1.0000 </r>
       <r>    2.5695    1.0000 </r>
       <r>    2.6257    1.0000 </r>
       <r>    2.6949    1.0000 </r>
       <r>    2.8281    1.0000 </r>
       <r>    2.8567    1.0000 </r>
       <r>    2.9289    1.0000 </r>
       <r>    5.1478    1.0000 </r>
       <r>    5.4449    1.0000 </r>
       <r>    5.5096    1.0000 </r>
       <r>    6.2673    0.0000 </r>
       <r>    6.3076    0.0000 </r>
       <r>    6.4626    0.0000 </r>
       <r>    6.6162    0.0000 </r>
       <r>    6.8017    0.0000 </r>
       <r>    6.8958    0.0000 </r>
       <r>    8.1711    0.0000 </r>
       <r>    8.3146    0.0000 </r>
      </set>
      <set comment="kpoint 9">
       <r>   -6.0314    1.0000 </r>
       <r>   -3.4550    1.0000 </r>
       <r>   -2.5838    1.0000 </r>
       <r>   -2.4851    1.0000 </r>
       <r>   -1.6671    1.0000 </r>
       <r>   -1.5685    1.0000 </r>
       <r>   -0.6009    1.0000 </r>
       <r>    2.1707    1.0000 </r>
       <r>    2.1934    1.0000 </r>
       <r>    2.6895    1.0000 </r>
       <r>    2.7510    1.0000 </r>
       <r>    2.8111    1.0000 </r>
       <r>    3.0191    1.0000 </r>
       <r>    4.2850    1.0000 </r>
       <r>    5.1918    1.0000 </r>
       <r>    5.2732    1.0000 </r>
       <r>    6.3616    0.0000 </r>
       <r>    6.7631    0.0000 </r>
       <r>    6.8726    0.0000 </r>
       <r>    7.0501    0.0000 </r>
       <r>    7.4786    0.0000 </r>
       <r>    7.5704    0.0000 </r>
       <r>    8.0663    0.0000 </r>
       <r>    8.6124    0.0000 </r>
      </set>
      <set comment="kpoint 10">
       <r>   -5.8982    1.0000 </r>
       <r>   -3.4429    1.0000 </r>
       <r>   -3.2944    1.0000 </r>
       <r>   -2.5336    1.0000 </r>
       <r>   -1.5821    1.0000 </r>
       <r>   -0.7052    1.0000 </r>
       <r>   -0.6318    1.0000 </r>
       <r>    1.7103    1.0000 </r>
       <r>    2.3194    1.0000 </r>
       <r>    2.3339    1.0000 </r>
       <r>    2.8602    1.0000 </r>
       <r>    2.9644    1.0000 </r>
       <r>    3.1173    1.0000 </r>
       <r>    3.5471    1.0000 </r>
       <r>    4.7884    1.0000 </r>
       <r>    5.4674    1.0000 </r>
       <r>    6.6350    0.0000 </r>
       <r>    6.8729    0.0000 </r>
       <r>    6.9781    0.0000 </r>
       <r>    7.6443    0.0000 </r>
       <r>    7.8248    0.0000 </r>
       <r>    8.3059    0.0000 </r>
       <r>    8.5144    0.0000 </r>
       <r>    8.5525    0.0000 </r>
      </set>
      <set comment="kpoint 11">
       <r>   -5.6348    1.0000 </r>
       <r>   -4.1064    1.0000 </r>
       <r>   -3.2050    1.0000 </r>
       <r>   -2.6106    1.0000 </r>
       <r>   -1.4637    1.0000 </r>
       <r>   -0.7981    1.0000 </r>
       <r>    0.2457    1.0000 </r>
       <r>    1.4497    1.0000 </r>
       <r>    1.9281    1.0000 </r>
       <r>    2.5916    1.0000 </r>
       <r>    2.6735    1.0000 </r>
       <r>    2.7969    1.0000 </r>
       <r>    3.0830    1.0000 </r>
       <r>    3.2755    1.0000 </r>
       <r>    4.2311    1.0000 </r>
       <r>    5.0956    1.0000 </r>
       <r>    7.0717    0.0000 </r>
       <r>    7.1900    0.0000 </r>
       <r>    7.8782    0.0000 </r>
       <r>    8.0991    0.0000 </r>
       <r>    8.2677    0.0000 </r>
       <r>    8.7755    0.0000 </r>
       <r>    8.8465    0.0000 </r>
       <r>    9.6208    0.0000 </r>
      </set>
      <set comment="kpoint 12">
       <r>   -5.2480    1.0000 </r>
       <r>   -4.7254    1.0000 </r>
       <r>   -3.0106    1.0000 </r>
       <r>   -2.7630    1.0000 </r>
       <r>   -1.2757    1.0000 </r>
       <r>   -1.0095    1.0000 </r>
       <r>    1.1039    1.0000 </r>
       <r>    1.4484    1.0000 </r>
       <r>    1.6084    1.0000 </r>
       <r>    1.9344    1.0000 </r>
       <r>    2.6668    1.0000 </r>
       <r>    2.8568    1.0000 </r>
       <r>    3.0895    1.0000 </r>
       <r>    3.5785    1.0000 </r>
       <r>    3.8439    1.0000 </r>
       <r>    4.4345    1.0000 </r>
       <r>    7.3798    0.0000 </r>
       <r>    7.7446    0.0000 </r>
       <r>    8.1775    0.0000 </r>
       <r>    8.8855    0.0000 </r>
       <r>    9.0918    0.0000 </r>
       <r>    9.2907    0.0000 </r>
       <r>    9.4719    0.0000 </r>
       <r>   10.0536    0.0000 </r>
      </set>
      <set comment="kpoint 13">
       <r>   -5.2555    1.0000 </r>
       <r>   -4.7144    1.0000 </r>
       <r>   -2.9966    1.0000 </r>
       <r>   -2.7799    1.0000 </r>
       <r>   -1.2482    1.0000 </r>
       <r>   -1.0451    1.0000 </r>
       <r>    1.0220    1.0000 </r>
       <r>    1.4591    1.0000 </r>
       <r>    1.6203    1.0000 </r>
       <r>    2.0325    1.0000 </r>
       <r>    2.7102    1.0000 </r>
       <r>    2.7988    1.0000 </r>
       <r>    3.1716    1.0000 </r>
       <r>    3.5834    1.0000 </r>
       <r>    3.7765    1.0000 </r>
       <r>    4.4006    1.0000 </r>
       <r>    7.3609    0.0000 </r>
       <r>    7.7523    0.0000 </r>
       <r>    8.1017    0.0000 </r>
       <r>    8.8390    0.0000 </r>
       <r>    9.0505    0.0000 </r>
       <r>    9.3598    0.0000 </r>
       <r>    9.5367    0.0000 </r>
       <r>   10.0185    0.0000 </r>
      </set>
      <set comment="kpoint 14">
       <r>   -5.6399    1.0000 </r>
       <r>   -4.0897    1.0000 </r>
       <r>   -3.1966    1.0000 </r>
       <r>   -2.6254    1.0000 </r>
       <r>   -1.4479    1.0000 </r>
       <r>   -0.8340    1.0000 </r>
       <r>    0.1691    1.0000 </r>
       <r>    1.4970    1.0000 </r>
       <r>    1.9619    1.0000 </r>
       <r>    2.6261    1.0000 </r>
       <r>    2.7284    1.0000 </r>
       <r>    2.8769    1.0000 </r>
       <r>    3.0772    1.0000 </r>
       <r>    3.2682    1.0000 </r>
       <r>    4.1540    1.0000 </r>
       <r>    5.0323    1.0000 </r>
       <r>    7.0053    0.0000 </r>
       <r>    7.1615    0.0000 </r>
       <r>    7.7937    0.0000 </r>
       <r>    8.0923    0.0000 </r>
       <r>    8.2516    0.0000 </r>
       <r>    8.8081    0.0000 </r>
       <r>    8.9063    0.0000 </r>
       <r>    9.5736    0.0000 </r>
      </set>
      <set comment="kpoint 15">
       <r>   -5.9012    1.0000 </r>
       <r>   -3.3983    1.0000 </r>
       <r>   -3.3167    1.0000 </r>
       <r>   -2.5369    1.0000 </r>
       <r>   -1.5787    1.0000 </r>
       <r>   -0.7403    1.0000 </r>
       <r>   -0.6793    1.0000 </r>
       <r>    1.7662    1.0000 </r>
       <r>    2.3725    1.0000 </r>
       <r>    2.3838    1.0000 </r>
       <r>    2.8569    1.0000 </r>
       <r>    2.9388    1.0000 </r>
       <r>    3.0768    1.0000 </r>
       <r>    3.6621    1.0000 </r>
       <r>    4.7224    1.0000 </r>
       <r>    5.3939    1.0000 </r>
       <r>    6.5582    0.0000 </r>
       <r>    6.8317    0.0000 </r>
       <r>    6.9384    0.0000 </r>
       <r>    7.7134    0.0000 </r>
       <r>    7.7967    0.0000 </r>
       <r>    8.2302    0.0000 </r>
       <r>    8.5714    0.0000 </r>
       <r>    8.6424    0.0000 </r>
      </set>
      <set comment="kpoint 16">
       <r>   -6.0323    1.0000 </r>
       <r>   -3.4501    1.0000 </r>
       <r>   -2.6072    1.0000 </r>
       <r>   -2.4332    1.0000 </r>
       <r>   -1.7086    1.0000 </r>
       <r>   -1.5714    1.0000 </r>
       <r>   -0.6112    1.0000 </r>
       <r>    2.1976    1.0000 </r>
       <r>    2.2388    1.0000 </r>
       <r>    2.6646    1.0000 </r>
       <r>    2.7671    1.0000 </r>
       <r>    2.8390    1.0000 </r>
       <r>    2.9608    1.0000 </r>
       <r>    4.3819    1.0000 </r>
       <r>    5.0554    1.0000 </r>
       <r>    5.3013    1.0000 </r>
       <r>    6.3339    0.0000 </r>
       <r>    6.6984    0.0000 </r>
       <r>    6.8422    0.0000 </r>
       <r>    7.1375    0.0000 </r>
       <r>    7.4134    0.0000 </r>
       <r>    7.6546    0.0000 </r>
       <r>    8.0630    0.0000 </r>
       <r>    8.5535    0.0000 </r>
      </set>
      <set comment="kpoint 17">
       <r>   -5.7696    1.0000 </r>
       <r>   -4.1901    1.0000 </r>
       <r>   -2.5183    1.0000 </r>
       <r>   -2.4093    1.0000 </r>
       <r>   -1.6324    1.0000 </r>
       <r>   -1.5425    1.0000 </r>
       <r>    0.4257    1.0000 </r>
       <r>    1.8093    1.0000 </r>
       <r>    1.8269    1.0000 </r>
       <r>    2.4512    1.0000 </r>
       <r>    2.4708    1.0000 </r>
       <r>    2.9860    1.0000 </r>
       <r>    3.2438    1.0000 </r>
       <r>    3.4255    1.0000 </r>
       <r>    4.6378    1.0000 </r>
       <r>    4.6655    1.0000 </r>
       <r>    6.4982    0.0000 </r>
       <r>    7.4041    0.0000 </r>
       <r>    7.6755    0.0000 </r>
       <r>    7.7856    0.0000 </r>
       <r>    7.8781    0.0000 </r>
       <r>    8.6036    0.0000 </r>
       <r>    8.6879    0.0000 </r>
       <r>    9.3516    0.0000 </r>
      </set>
      <set comment="kpoint 18">
       <r>   -5.6389    1.0000 </r>
       <r>   -4.0912    1.0000 </r>
       <r>   -3.2165    1.0000 </r>
       <r>   -2.6071    1.0000 </r>
       <r>   -1.4657    1.0000 </r>
       <r>   -0.8065    1.0000 </r>
       <r>    0.2537    1.0000 </r>
       <r>    1.4501    1.0000 </r>
       <r>    1.9361    1.0000 </r>
       <r>    2.5673    1.0000 </r>
       <r>    2.6737    1.0000 </r>
       <r>    2.8421    1.0000 </r>
       <r>    3.0833    1.0000 </r>
       <r>    3.2376    1.0000 </r>
       <r>    4.2268    1.0000 </r>
       <r>    5.0965    1.0000 </r>
       <r>    7.0769    0.0000 </r>
       <r>    7.1937    0.0000 </r>
       <r>    7.8128    0.0000 </r>
       <r>    8.0920    0.0000 </r>
       <r>    8.3381    0.0000 </r>
       <r>    8.7836    0.0000 </r>
       <r>    8.9173    0.0000 </r>
       <r>    9.5483    0.0000 </r>
      </set>
      <set comment="kpoint 19">
       <r>   -5.3813    1.0000 </r>
       <r>   -3.9721    1.0000 </r>
       <r>   -3.8208    1.0000 </r>
       <r>   -2.8966    1.0000 </r>
       <r>   -1.2186    1.0000 </r>
       <r>   -0.0934    1.0000 </r>
       <r>   -0.0427    1.0000 </r>
       <r>    1.3320    1.0000 </r>
       <r>    1.9406    1.0000 </r>
       <r>    2.1532    1.0000 </r>
       <r>    2.2612    1.0000 </r>
       <r>    3.1134    1.0000 </r>
       <r>    3.3310    1.0000 </r>
       <r>    3.5296    1.0000 </r>
       <r>    3.7010    1.0000 </r>
       <r>    5.1718    1.0000 </r>
       <r>    7.1248    0.0000 </r>
       <r>    8.0080    0.0000 </r>
       <r>    8.1117    0.0000 </r>
       <r>    8.4989    0.0000 </r>
       <r>    8.9537    0.0000 </r>
       <r>    9.1133    0.0000 </r>
       <r>    9.2630    0.0000 </r>
       <r>    9.5104    0.0000 </r>
      </set>
      <set comment="kpoint 20">
       <r>   -5.0050    1.0000 </r>
       <r>   -4.5066    1.0000 </r>
       <r>   -3.6044    1.0000 </r>
       <r>   -3.2364    1.0000 </r>
       <r>   -0.8902    1.0000 </r>
       <r>   -0.4620    1.0000 </r>
       <r>    0.6311    1.0000 </r>
       <r>    1.2090    1.0000 </r>
       <r>    1.4926    1.0000 </r>
       <r>    1.7959    1.0000 </r>
       <r>    2.5524    1.0000 </r>
       <r>    3.0156    1.0000 </r>
       <r>    3.4164    1.0000 </r>
       <r>    3.5725    1.0000 </r>
       <r>    4.0019    1.0000 </r>
       <r>    4.7250    1.0000 </r>
       <r>    7.7244    0.0000 </r>
       <r>    8.3246    0.0000 </r>
       <r>    8.5791    0.0000 </r>
       <r>    8.7436    0.0000 </r>
       <r>    8.8923    0.0000 </r>
       <r>    9.2864    0.0000 </r>
       <r>    9.3884    0.0000 </r>
       <r>    9.7929    0.0000 </r>
      </set>
      <set comment="kpoint 21">
       <r>   -5.0170    1.0000 </r>
       <r>   -4.4880    1.0000 </r>
       <r>   -3.5937    1.0000 </r>
       <r>   -3.2542    1.0000 </r>
       <r>   -0.8512    1.0000 </r>
       <r>   -0.5061    1.0000 </r>
       <r>    0.5313    1.0000 </r>
       <r>    1.3041    1.0000 </r>
       <r>    1.5062    1.0000 </r>
       <r>    1.8050    1.0000 </r>
       <r>    2.5948    1.0000 </r>
       <r>    3.0115    1.0000 </r>
       <r>    3.4403    1.0000 </r>
       <r>    3.5341    1.0000 </r>
       <r>    4.0155    1.0000 </r>
       <r>    4.6781    1.0000 </r>
       <r>    7.6307    0.0000 </r>
       <r>    8.3300    0.0000 </r>
       <r>    8.5316    0.0000 </r>
       <r>    8.8021    0.0000 </r>
       <r>    8.9618    0.0000 </r>
       <r>    9.1995    0.0000 </r>
       <r>    9.4147    0.0000 </r>
       <r>    9.8101    0.0000 </r>
      </set>
      <set comment="kpoint 22">
       <r>   -5.3894    1.0000 </r>
       <r>   -3.9208    1.0000 </r>
       <r>   -3.8417    1.0000 </r>
       <r>   -2.9178    1.0000 </r>
       <r>   -1.1857    1.0000 </r>
       <r>   -0.1686    1.0000 </r>
       <r>   -0.1094    1.0000 </r>
       <r>    1.3780    1.0000 </r>
       <r>    1.9858    1.0000 </r>
       <r>    2.2056    1.0000 </r>
       <r>    2.3305    1.0000 </r>
       <r>    3.2187    1.0000 </r>
       <r>    3.3189    1.0000 </r>
       <r>    3.4786    1.0000 </r>
       <r>    3.6253    1.0000 </r>
       <r>    5.1046    1.0000 </r>
       <r>    7.0395    0.0000 </r>
       <r>    7.9851    0.0000 </r>
       <r>    8.0574    0.0000 </r>
       <r>    8.4216    0.0000 </r>
       <r>    8.9494    0.0000 </r>
       <r>    9.2318    0.0000 </r>
       <r>    9.2937    0.0000 </r>
       <r>    9.4472    0.0000 </r>
      </set>
      <set comment="kpoint 23">
       <r>   -5.6435    1.0000 </r>
       <r>   -4.0810    1.0000 </r>
       <r>   -3.1971    1.0000 </r>
       <r>   -2.6200    1.0000 </r>
       <r>   -1.4429    1.0000 </r>
       <r>   -0.8876    1.0000 </r>
       <r>    0.2158    1.0000 </r>
       <r>    1.5046    1.0000 </r>
       <r>    1.9754    1.0000 </r>
       <r>    2.6025    1.0000 </r>
       <r>    2.7465    1.0000 </r>
       <r>    2.8990    1.0000 </r>
       <r>    3.0444    1.0000 </r>
       <r>    3.2268    1.0000 </r>
       <r>    4.1756    1.0000 </r>
       <r>    5.0241    1.0000 </r>
       <r>    7.0227    0.0000 </r>
       <r>    7.1151    0.0000 </r>
       <r>    7.7949    0.0000 </r>
       <r>    8.1190    0.0000 </r>
       <r>    8.3648    0.0000 </r>
       <r>    8.7015    0.0000 </r>
       <r>    8.9378    0.0000 </r>
       <r>    9.5637    0.0000 </r>
      </set>
      <set comment="kpoint 24">
       <r>   -5.7711    1.0000 </r>
       <r>   -4.1871    1.0000 </r>
       <r>   -2.5413    1.0000 </r>
       <r>   -2.3468    1.0000 </r>
       <r>   -1.6849    1.0000 </r>
       <r>   -1.5480    1.0000 </r>
       <r>    0.4106    1.0000 </r>
       <r>    1.8388    1.0000 </r>
       <r>    1.8731    1.0000 </r>
       <r>    2.4058    1.0000 </r>
       <r>    2.4621    1.0000 </r>
       <r>    3.0590    1.0000 </r>
       <r>    3.1877    1.0000 </r>
       <r>    3.4978    1.0000 </r>
       <r>    4.5265    1.0000 </r>
       <r>    4.6988    1.0000 </r>
       <r>    6.4753    0.0000 </r>
       <r>    7.4059    0.0000 </r>
       <r>    7.6256    0.0000 </r>
       <r>    7.7643    0.0000 </r>
       <r>    7.8964    0.0000 </r>
       <r>    8.5930    0.0000 </r>
       <r>    8.7576    0.0000 </r>
       <r>    9.3260    0.0000 </r>
      </set>
      <set comment="kpoint 25">
       <r>   -5.3979    1.0000 </r>
       <r>   -4.8031    1.0000 </r>
       <r>   -2.4637    1.0000 </r>
       <r>   -2.3454    1.0000 </r>
       <r>   -1.6158    1.0000 </r>
       <r>   -1.5333    1.0000 </r>
       <r>    1.4274    1.0000 </r>
       <r>    1.6281    1.0000 </r>
       <r>    1.6638    1.0000 </r>
       <r>    2.2127    1.0000 </r>
       <r>    2.2601    1.0000 </r>
       <r>    2.4716    1.0000 </r>
       <r>    3.3871    1.0000 </r>
       <r>    3.5528    1.0000 </r>
       <r>    4.0233    1.0000 </r>
       <r>    4.1513    1.0000 </r>
       <r>    6.7505    0.0000 </r>
       <r>    7.1233    0.0000 </r>
       <r>    8.3964    0.0000 </r>
       <r>    8.9473    0.0000 </r>
       <r>    9.0356    0.0000 </r>
       <r>    9.2872    0.0000 </r>
       <r>    9.8005    0.0000 </r>
       <r>    9.8677    0.0000 </r>
      </set>
      <set comment="kpoint 26">
       <r>   -5.2719    1.0000 </r>
       <r>   -4.6888    1.0000 </r>
       <r>   -3.0412    1.0000 </r>
       <r>   -2.7423    1.0000 </r>
       <r>   -1.2866    1.0000 </r>
       <r>   -1.0027    1.0000 </r>
       <r>    1.1128    1.0000 </r>
       <r>    1.4364    1.0000 </r>
       <r>    1.6289    1.0000 </r>
       <r>    1.9187    1.0000 </r>
       <r>    2.6754    1.0000 </r>
       <r>    2.8835    1.0000 </r>
       <r>    3.0714    1.0000 </r>
       <r>    3.5402    1.0000 </r>
       <r>    3.8301    1.0000 </r>
       <r>    4.4511    1.0000 </r>
       <r>    7.3585    0.0000 </r>
       <r>    7.7343    0.0000 </r>
       <r>    8.2238    0.0000 </r>
       <r>    8.9038    0.0000 </r>
       <r>    9.0890    0.0000 </r>
       <r>    9.3498    0.0000 </r>
       <r>    9.5219    0.0000 </r>
       <r>   10.0177    0.0000 </r>
      </set>
      <set comment="kpoint 27">
       <r>   -5.0250    1.0000 </r>
       <r>   -4.4650    1.0000 </r>
       <r>   -3.6433    1.0000 </r>
       <r>   -3.2194    1.0000 </r>
       <r>   -0.8952    1.0000 </r>
       <r>   -0.4503    1.0000 </r>
       <r>    0.6229    1.0000 </r>
       <r>    1.2277    1.0000 </r>
       <r>    1.4856    1.0000 </r>
       <r>    1.7776    1.0000 </r>
       <r>    2.5600    1.0000 </r>
       <r>    3.0242    1.0000 </r>
       <r>    3.3959    1.0000 </r>
       <r>    3.5872    1.0000 </r>
       <r>    3.9839    1.0000 </r>
       <r>    4.7318    1.0000 </r>
       <r>    7.7324    0.0000 </r>
       <r>    8.3108    0.0000 </r>
       <r>    8.5926    0.0000 </r>
       <r>    8.7455    0.0000 </r>
       <r>    8.8864    0.0000 </r>
       <r>    9.3204    0.0000 </r>
       <r>    9.3966    0.0000 </r>
       <r>    9.8323    0.0000 </r>
      </set>
      <set comment="kpoint 28">
       <r>   -4.6684    1.0000 </r>
       <r>   -4.2398    1.0000 </r>
       <r>   -4.0873    1.0000 </r>
       <r>   -3.6868    1.0000 </r>
       <r>   -0.4511    1.0000 </r>
       <r>    0.0722    1.0000 </r>
       <r>    0.1275    1.0000 </r>
       <r>    0.6109    1.0000 </r>
       <r>    1.6867    1.0000 </r>
       <r>    2.0289    1.0000 </r>
       <r>    2.1323    1.0000 </r>
       <r>    2.5469    1.0000 </r>
       <r>    3.9734    1.0000 </r>
       <r>    4.0574    1.0000 </r>
       <r>    4.2466    1.0000 </r>
       <r>    4.6773    1.0000 </r>
       <r>    7.7444    0.0000 </r>
       <r>    8.1655    0.0000 </r>
       <r>    8.3278    0.0000 </r>
       <r>    8.3920    0.0000 </r>
       <r>    9.4697    0.0000 </r>
       <r>    9.6016    0.0000 </r>
       <r>    9.8081    0.0000 </r>
       <r>   10.0085    0.0000 </r>
      </set>
      <set comment="kpoint 29">
       <r>   -4.6838    1.0000 </r>
       <r>   -4.1994    1.0000 </r>
       <r>   -4.1021    1.0000 </r>
       <r>   -3.6944    1.0000 </r>
       <r>   -0.4120    1.0000 </r>
       <r>    0.0033    1.0000 </r>
       <r>    0.0553    1.0000 </r>
       <r>    0.7024    1.0000 </r>
       <r>    1.7023    1.0000 </r>
       <r>    2.0567    1.0000 </r>
       <r>    2.1400    1.0000 </r>
       <r>    2.5201    1.0000 </r>
       <r>    3.9598    1.0000 </r>
       <r>    4.1113    1.0000 </r>
       <r>    4.2325    1.0000 </r>
       <r>    4.6351    1.0000 </r>
       <r>    7.6459    0.0000 </r>
       <r>    8.2576    0.0000 </r>
       <r>    8.3296    0.0000 </r>
       <r>    8.4090    0.0000 </r>
       <r>    9.4388    0.0000 </r>
       <r>    9.5329    0.0000 </r>
       <r>    9.8008    0.0000 </r>
       <r>    9.9974    0.0000 </r>
      </set>
      <set comment="kpoint 30">
       <r>   -5.0350    1.0000 </r>
       <r>   -4.4549    1.0000 </r>
       <r>   -3.6253    1.0000 </r>
       <r>   -3.2282    1.0000 </r>
       <r>   -0.8571    1.0000 </r>
       <r>   -0.5542    1.0000 </r>
       <r>    0.5782    1.0000 </r>
       <r>    1.3087    1.0000 </r>
       <r>    1.5080    1.0000 </r>
       <r>    1.8323    1.0000 </r>
       <r>    2.5663    1.0000 </r>
       <r>    3.0400    1.0000 </r>
       <r>    3.4005    1.0000 </r>
       <r>    3.5339    1.0000 </r>
       <r>    4.0218    1.0000 </r>
       <r>    4.6632    1.0000 </r>
       <r>    7.6467    0.0000 </r>
       <r>    8.2721    0.0000 </r>
       <r>    8.6121    0.0000 </r>
       <r>    8.7657    0.0000 </r>
       <r>    8.8518    0.0000 </r>
       <r>    9.3044    0.0000 </r>
       <r>    9.4093    0.0000 </r>
       <r>    9.8833    0.0000 </r>
      </set>
      <set comment="kpoint 31">
       <r>   -5.2776    1.0000 </r>
       <r>   -4.6837    1.0000 </r>
       <r>   -3.0232    1.0000 </r>
       <r>   -2.7383    1.0000 </r>
       <r>   -1.2535    1.0000 </r>
       <r>   -1.1012    1.0000 </r>
       <r>    1.0780    1.0000 </r>
       <r>    1.4733    1.0000 </r>
       <r>    1.6498    1.0000 </r>
       <r>    2.0077    1.0000 </r>
       <r>    2.7073    1.0000 </r>
       <r>    2.8164    1.0000 </r>
       <r>    3.1123    1.0000 </r>
       <r>    3.5483    1.0000 </r>
       <r>    3.8276    1.0000 </r>
       <r>    4.3718    1.0000 </r>
       <r>    7.3192    0.0000 </r>
       <r>    7.7209    0.0000 </r>
       <r>    8.1322    0.0000 </r>
       <r>    8.8886    0.0000 </r>
       <r>    9.1313    0.0000 </r>
       <r>    9.4251    0.0000 </r>
       <r>    9.5222    0.0000 </r>
       <r>   10.0214    0.0000 </r>
      </set>
      <set comment="kpoint 32">
       <r>   -5.3997    1.0000 </r>
       <r>   -4.8014    1.0000 </r>
       <r>   -2.4884    1.0000 </r>
       <r>   -2.2756    1.0000 </r>
       <r>   -1.6745    1.0000 </r>
       <r>   -1.5366    1.0000 </r>
       <r>    1.4170    1.0000 </r>
       <r>    1.6602    1.0000 </r>
       <r>    1.6808    1.0000 </r>
       <r>    2.1795    1.0000 </r>
       <r>    2.2561    1.0000 </r>
       <r>    2.5069    1.0000 </r>
       <r>    3.4629    1.0000 </r>
       <r>    3.5137    1.0000 </r>
       <r>    4.0285    1.0000 </r>
       <r>    4.0903    1.0000 </r>
       <r>    6.7341    0.0000 </r>
       <r>    7.1180    0.0000 </r>
       <r>    8.3969    0.0000 </r>
       <r>    8.8574    0.0000 </r>
       <r>    9.0558    0.0000 </r>
       <r>    9.3053    0.0000 </r>
       <r>    9.8319    0.0000 </r>
       <r>    9.9810    0.0000 </r>
      </set>
      <set comment="kpoint 33">
       <r>   -5.4007    1.0000 </r>
       <r>   -4.7984    1.0000 </r>
       <r>   -2.4649    1.0000 </r>
       <r>   -2.3440    1.0000 </r>
       <r>   -1.6159    1.0000 </r>
       <r>   -1.5375    1.0000 </r>
       <r>    1.3971    1.0000 </r>
       <r>    1.6409    1.0000 </r>
       <r>    1.6580    1.0000 </r>
       <r>    2.2105    1.0000 </r>
       <r>    2.2525    1.0000 </r>
       <r>    2.5300    1.0000 </r>
       <r>    3.4320    1.0000 </r>
       <r>    3.5518    1.0000 </r>
       <r>    3.9541    1.0000 </r>
       <r>    4.1533    1.0000 </r>
       <r>    6.7418    0.0000 </r>
       <r>    7.1332    0.0000 </r>
       <r>    8.3904    0.0000 </r>
       <r>    8.8948    0.0000 </r>
       <r>    8.9772    0.0000 </r>
       <r>    9.2699    0.0000 </r>
       <r>    9.8882    0.0000 </r>
       <r>    9.9756    0.0000 </r>
      </set>
      <set comment="kpoint 34">
       <r>   -5.2782    1.0000 </r>
       <r>   -4.6788    1.0000 </r>
       <r>   -3.0231    1.0000 </r>
       <r>   -2.7701    1.0000 </r>
       <r>   -1.2336    1.0000 </r>
       <r>   -1.0552    1.0000 </r>
       <r>    1.0485    1.0000 </r>
       <r>    1.4530    1.0000 </r>
       <r>    1.6145    1.0000 </r>
       <r>    2.0106    1.0000 </r>
       <r>    2.7155    1.0000 </r>
       <r>    2.8313    1.0000 </r>
       <r>    3.1188    1.0000 </r>
       <r>    3.5319    1.0000 </r>
       <r>    3.8336    1.0000 </r>
       <r>    4.3970    1.0000 </r>
       <r>    7.3433    0.0000 </r>
       <r>    7.7511    0.0000 </r>
       <r>    8.1291    0.0000 </r>
       <r>    8.8976    0.0000 </r>
       <r>    9.0767    0.0000 </r>
       <r>    9.4152    0.0000 </r>
       <r>    9.5217    0.0000 </r>
       <r>    9.9872    0.0000 </r>
      </set>
      <set comment="kpoint 35">
       <r>   -5.0352    1.0000 </r>
       <r>   -4.4475    1.0000 </r>
       <r>   -3.6301    1.0000 </r>
       <r>   -3.2445    1.0000 </r>
       <r>   -0.8358    1.0000 </r>
       <r>   -0.5099    1.0000 </r>
       <r>    0.5406    1.0000 </r>
       <r>    1.3200    1.0000 </r>
       <r>    1.4827    1.0000 </r>
       <r>    1.7854    1.0000 </r>
       <r>    2.5756    1.0000 </r>
       <r>    3.0377    1.0000 </r>
       <r>    3.4183    1.0000 </r>
       <r>    3.5480    1.0000 </r>
       <r>    4.0219    1.0000 </r>
       <r>    4.6731    1.0000 </r>
       <r>    7.6442    0.0000 </r>
       <r>    8.2981    0.0000 </r>
       <r>    8.5642    0.0000 </r>
       <r>    8.8072    0.0000 </r>
       <r>    8.9477    0.0000 </r>
       <r>    9.2709    0.0000 </r>
       <r>    9.4069    0.0000 </r>
       <r>    9.8404    0.0000 </r>
      </set>
      <set comment="kpoint 36">
       <r>   -4.6838    1.0000 </r>
       <r>   -4.1972    1.0000 </r>
       <r>   -4.0984    1.0000 </r>
       <r>   -3.7031    1.0000 </r>
       <r>   -0.3931    1.0000 </r>
       <r>    0.0003    1.0000 </r>
       <r>    0.0545    1.0000 </r>
       <r>    0.6955    1.0000 </r>
       <r>    1.6977    1.0000 </r>
       <r>    2.0651    1.0000 </r>
       <r>    2.1023    1.0000 </r>
       <r>    2.5417    1.0000 </r>
       <r>    3.9634    1.0000 </r>
       <r>    4.1155    1.0000 </r>
       <r>    4.2326    1.0000 </r>
       <r>    4.6336    1.0000 </r>
       <r>    7.6484    0.0000 </r>
       <r>    8.2622    0.0000 </r>
       <r>    8.3196    0.0000 </r>
       <r>    8.4111    0.0000 </r>
       <r>    9.4529    0.0000 </r>
       <r>    9.5327    0.0000 </r>
       <r>    9.8428    0.0000 </r>
       <r>   10.0076    0.0000 </r>
      </set>
      <set comment="kpoint 37">
       <r>   -4.6714    1.0000 </r>
       <r>   -4.2448    1.0000 </r>
       <r>   -4.0858    1.0000 </r>
       <r>   -3.6730    1.0000 </r>
       <r>   -0.4982    1.0000 </r>
       <r>    0.0704    1.0000 </r>
       <r>    0.1285    1.0000 </r>
       <r>    0.6414    1.0000 </r>
       <r>    1.7210    1.0000 </r>
       <r>    2.0294    1.0000 </r>
       <r>    2.1687    1.0000 </r>
       <r>    2.5058    1.0000 </r>
       <r>    3.9577    1.0000 </r>
       <r>    4.0514    1.0000 </r>
       <r>    4.2408    1.0000 </r>
       <r>    4.6821    1.0000 </r>
       <r>    7.7436    0.0000 </r>
       <r>    8.1777    0.0000 </r>
       <r>    8.3210    0.0000 </r>
       <r>    8.4050    0.0000 </r>
       <r>    9.4480    0.0000 </r>
       <r>    9.5647    0.0000 </r>
       <r>    9.7268    0.0000 </r>
       <r>    9.9921    0.0000 </r>
      </set>
      <set comment="kpoint 38">
       <r>   -5.0276    1.0000 </r>
       <r>   -4.4677    1.0000 </r>
       <r>   -3.6429    1.0000 </r>
       <r>   -3.1959    1.0000 </r>
       <r>   -0.9444    1.0000 </r>
       <r>   -0.4719    1.0000 </r>
       <r>    0.6296    1.0000 </r>
       <r>    1.2402    1.0000 </r>
       <r>    1.5359    1.0000 </r>
       <r>    1.8148    1.0000 </r>
       <r>    2.5877    1.0000 </r>
       <r>    3.0088    1.0000 </r>
       <r>    3.3519    1.0000 </r>
       <r>    3.5769    1.0000 </r>
       <r>    3.9691    1.0000 </r>
       <r>    4.7326    1.0000 </r>
       <r>    7.7310    0.0000 </r>
       <r>    8.2955    0.0000 </r>
       <r>    8.5607    0.0000 </r>
       <r>    8.7136    0.0000 </r>
       <r>    8.9094    0.0000 </r>
       <r>    9.3044    0.0000 </r>
       <r>    9.3562    0.0000 </r>
       <r>    9.8602    0.0000 </r>
[...]
       <r>   -4.0454    1.0000 </r>
       <r>   -3.7293    1.0000 </r>
       <r>   -0.3735    1.0000 </r>
       <r>   -0.0171    1.0000 </r>
       <r>    0.0499    1.0000 </r>
       <r>    0.7040    1.0000 </r>
       <r>    1.7150    1.0000 </r>
       <r>    2.0094    1.0000 </r>
       <r>    2.1822    1.0000 </r>
       <r>    2.5245    1.0000 </r>
       <r>    3.9546    1.0000 </r>
       <r>    4.0055    1.0000 </r>
       <r>    4.3661    1.0000 </r>
       <r>    4.5889    1.0000 </r>
       <r>    7.6515    0.0000 </r>
       <r>    8.2170    0.0000 </r>
       <r>    8.2583    0.0000 </r>
       <r>    8.5229    0.0000 </r>
       <r>    9.4788    0.0000 </r>
       <r>    9.5597    0.0000 </r>
       <r>    9.8159    0.0000 </r>
       <r>    9.9646    0.0000 </r>
      </set>
      <set comment="kpoint 254">
       <r>   -5.0197    1.0000 </r>
       <r>   -4.4767    1.0000 </r>
       <r>   -3.6003    1.0000 </r>
       <r>   -3.2646    1.0000 </r>
       <r>   -0.8159    1.0000 </r>
       <r>   -0.5292    1.0000 </r>
       <r>    0.5324    1.0000 </r>
       <r>    1.2635    1.0000 </r>
       <r>    1.5701    1.0000 </r>
       <r>    1.7809    1.0000 </r>
       <r>    2.6051    1.0000 </r>
       <r>    3.0208    1.0000 </r>
       <r>    3.4152    1.0000 </r>
       <r>    3.5040    1.0000 </r>
       <r>    4.0755    1.0000 </r>
       <r>    4.6343    1.0000 </r>
       <r>    7.6446    0.0000 </r>
       <r>    8.3323    0.0000 </r>
       <r>    8.5432    0.0000 </r>
       <r>    8.7881    0.0000 </r>
       <r>    8.9312    0.0000 </r>
       <r>    9.2495    0.0000 </r>
       <r>    9.4409    0.0000 </r>
       <r>    9.8235    0.0000 </r>
      </set>
      <set comment="kpoint 255">
       <r>   -5.2626    1.0000 </r>
       <r>   -4.7040    1.0000 </r>
       <r>   -3.0036    1.0000 </r>
       <r>   -2.7773    1.0000 </r>
       <r>   -1.2175    1.0000 </r>
       <r>   -1.0750    1.0000 </r>
       <r>    1.0336    1.0000 </r>
       <r>    1.4280    1.0000 </r>
       <r>    1.6326    1.0000 </r>
       <r>    2.0477    1.0000 </r>
       <r>    2.7046    1.0000 </r>
       <r>    2.8222    1.0000 </r>
       <r>    3.1226    1.0000 </r>
       <r>    3.5836    1.0000 </r>
       <r>    3.8260    1.0000 </r>
       <r>    4.3554    1.0000 </r>
       <r>    7.3625    0.0000 </r>
       <r>    7.7500    0.0000 </r>
       <r>    8.1318    0.0000 </r>
       <r>    8.8165    0.0000 </r>
       <r>    9.1043    0.0000 </r>
       <r>    9.4151    0.0000 </r>
       <r>    9.5175    0.0000 </r>
       <r>    9.9365    0.0000 </r>
      </set>
      <set comment="kpoint 256">
       <r>   -5.3852    1.0000 </r>
       <r>   -4.8226    1.0000 </r>
       <r>   -2.4705    1.0000 </r>
       <r>   -2.3124    1.0000 </r>
       <r>   -1.6361    1.0000 </r>
       <r>   -1.5313    1.0000 </r>
       <r>    1.3745    1.0000 </r>
       <r>    1.6214    1.0000 </r>
       <r>    1.6835    1.0000 </r>
       <r>    2.1917    1.0000 </r>
       <r>    2.2385    1.0000 </r>
       <r>    2.5575    1.0000 </r>
       <r>    3.4661    1.0000 </r>
       <r>    3.6024    1.0000 </r>
       <r>    3.9612    1.0000 </r>
       <r>    4.0855    1.0000 </r>
       <r>    6.7518    0.0000 </r>
       <r>    7.1433    0.0000 </r>
       <r>    8.3516    0.0000 </r>
       <r>    8.8789    0.0000 </r>
       <r>    9.0080    0.0000 </r>
       <r>    9.2441    0.0000 </r>
       <r>    9.8678    0.0000 </r>
       <r>    9.9505    0.0000 </r>
      </set>
     </set>
    </set>
   </array>
  </eigenvalues>
  <separator name="orbital magnetization" >
   <v name="MAGDIPOLOUT">      0.00000000      0.00000000      0.00000000</v>
  </separator>
  <dos>
   <i name="efermi">      5.73075601 </i>
   <total>
    <array>
     <dimension dim="1">gridpoints</dimension>
     <dimension dim="2">spin</dimension>
     <field>energy</field>
     <field>total</field>
     <field>integrated</field>
     <set>
      <set comment="spin 1">
       <r>    -6.9816     0.0000     0.0000 </r>
       <r>    -6.9217     0.0000     0.0000 </r>
       <r>    -6.8618     0.0000     0.0000 </r>
       <r>    -6.8018     0.0000     0.0000 </r>
       <r>    -6.7419     0.0000     0.0000 </r>
       <r>    -6.6820     0.0000     0.0000 </r>
       <r>    -6.6221     0.0000     0.0000 </r>
       <r>    -6.5621     0.0000     0.0000 </r>
       <r>    -6.5022     0.0000     0.0000 </r>
       <r>    -6.4423     0.0000     0.0000 </r>
       <r>    -6.3823     0.0000     0.0000 </r>
       <r>    -6.3224     0.0000     0.0000 </r>
       <r>    -6.2625     0.0000     0.0000 </r>
       <r>    -6.2026     0.0000     0.0000 </r>
       <r>    -6.1426     0.5191     0.0311 </r>
       <r>    -6.0827     0.0000     0.0313 </r>
       <r>    -6.0228     1.6353     0.1293 </r>
       <r>    -5.9628    -0.0709     0.1250 </r>
       <r>    -5.9029     0.3337     0.1450 </r>
       <r>    -5.8430     1.2306     0.2187 </r>
       <r>    -5.7831    -0.0374     0.2165 </r>
       <r>    -5.7231     2.1232     0.3437 </r>
       <r>    -5.6632     0.0092     0.3443 </r>
       <r>    -5.6033     3.1194     0.5312 </r>
       <r>    -5.5433     0.0010     0.5313 </r>
       <r>    -5.4834     1.5623     0.6249 </r>
       <r>    -5.4235     0.0015     0.6251 </r>
       <r>    -5.3636     3.1449     0.8136 </r>
       <r>    -5.3036    -0.0216     0.8126 </r>
       <r>    -5.2437     4.6964     1.0940 </r>
       <r>    -5.1838    -0.0080     1.0938 </r>
       <r>    -5.1238     1.5412     1.1862 </r>
       <r>    -5.0639     0.0218     1.1876 </r>
       <r>    -5.0040     3.4898     1.3967 </r>
       <r>    -4.9441     0.1578     1.4063 </r>
       <r>    -4.8841     3.1172     1.5931 </r>
       <r>    -4.8242     0.8620     1.6449 </r>
       <r>    -4.7643     0.7107     1.6875 </r>
       <r>    -4.7043     2.6171     1.8443 </r>
       <r>    -4.6444     3.6439     2.0628 </r>
       <r>    -4.5845     1.8697     2.1749 </r>
       <r>    -4.5246     1.2539     2.2501 </r>
       <r>    -4.4646     2.5048     2.4002 </r>
       <r>    -4.4047     2.5042     2.5504 </r>
       <r>    -4.3448     2.6543     2.7095 </r>
       <r>    -4.2848     0.1527     2.7188 </r>
       <r>    -4.2249     1.8918     2.8321 </r>
       <r>    -4.1650     4.2097     3.0845 </r>
       <r>    -4.1051     1.5121     3.1753 </r>
       <r>    -4.0451     5.0057     3.4753 </r>
       <r>    -3.9852     3.6620     3.6948 </r>
       <r>    -3.9253     2.2712     3.8311 </r>
       <r>    -3.8653     2.6764     3.9915 </r>
       <r>    -3.8054     2.1202     4.1185 </r>
       <r>    -3.7455     2.0662     4.2424 </r>
       <r>    -3.6856     5.0301     4.5439 </r>
       <r>    -3.6256     4.0488     4.7866 </r>
       <r>    -3.5657     4.8534     5.0776 </r>
       <r>    -3.5058     1.5729     5.1720 </r>
       <r>    -3.4458     2.2986     5.3097 </r>
       <r>    -3.3859     1.6131     5.4064 </r>
       <r>    -3.3260     2.0432     5.5288 </r>
       <r>    -3.2661     3.8683     5.7607 </r>
       <r>    -3.2061     6.1125     6.1271 </r>
       <r>    -3.1462     4.3324     6.3869 </r>
       <r>    -3.0863     1.6375     6.4851 </r>
       <r>    -3.0263     2.2406     6.6194 </r>
       <r>    -2.9664     2.6508     6.7784 </r>
       <r>    -2.9065     0.8780     6.8311 </r>
       <r>    -2.8465     0.7311     6.8749 </r>
       <r>    -2.7866     0.4440     6.9016 </r>
       <r>    -2.7267     2.5377     7.0537 </r>
       <r>    -2.6668     0.5604     7.0874 </r>
       <r>    -2.6068     2.7413     7.2516 </r>
       <r>    -2.5469     3.4836     7.4605 </r>
       <r>    -2.4870     3.0647     7.6443 </r>
       <r>    -2.4270     2.4826     7.7932 </r>
       <r>    -2.3671     1.4747     7.8816 </r>
       <r>    -2.3072     1.7082     7.9840 </r>
       <r>    -2.2473     0.2669     8.0000 </r>
       <r>    -2.1873     0.0000     8.0000 </r>
       <r>    -2.1274     0.0000     8.0000 </r>
       <r>    -2.0675     0.0000     8.0000 </r>
       <r>    -2.0075     0.0000     8.0000 </r>
       <r>    -1.9476     0.0000     8.0000 </r>
       <r>    -1.8877     0.0000     8.0000 </r>
       <r>    -1.8278     0.0002     8.0000 </r>
       <r>    -1.7678     0.2611     8.0157 </r>
       <r>    -1.7079     0.4653     8.0436 </r>
       <r>    -1.6480     2.2376     8.1776 </r>
       <r>    -1.5880     3.4990     8.3875 </r>
       <r>    -1.5281     4.4041     8.6515 </r>
       <r>    -1.4682     2.5299     8.8032 </r>
       <r>    -1.4083     1.8643     8.9150 </r>
       <r>    -1.3483     0.4067     8.9394 </r>
       <r>    -1.2884     1.5227     9.0307 </r>
       <r>    -1.2285     2.6834     9.1915 </r>
       <r>    -1.1685     3.5921     9.4068 </r>
       <r>    -1.1086     3.1829     9.5977 </r>
       <r>    -1.0487     5.6306     9.9353 </r>
       <r>    -0.9888     6.5731    10.3293 </r>
       <r>    -0.9288     3.6576    10.5485 </r>
       <r>    -0.8689     4.7948    10.8360 </r>
       <r>    -0.8090     6.4509    11.2227 </r>
       <r>    -0.7490     4.4149    11.4875 </r>
       <r>    -0.6891     1.5005    11.5775 </r>
       <r>    -0.6292     2.1148    11.7043 </r>
       <r>    -0.5693     1.1955    11.7759 </r>
       <r>    -0.5093     3.6805    11.9965 </r>
       <r>    -0.4494     3.3020    12.1945 </r>
       <r>    -0.3895     4.8537    12.4855 </r>
       <r>    -0.3295     1.7084    12.5880 </r>
       <r>    -0.2696     0.4246    12.6134 </r>
       <r>    -0.2097     0.4537    12.6406 </r>
       <r>    -0.1498     0.7785    12.6873 </r>
       <r>    -0.0898     1.4119    12.7720 </r>
       <r>    -0.0299     1.4074    12.8563 </r>
       <r>     0.0300     2.2472    12.9910 </r>
       <r>     0.0900     2.4188    13.1360 </r>
       <r>     0.1499     4.4607    13.4033 </r>
       <r>     0.2098     2.0008    13.5234 </r>
       <r>     0.2697     1.8913    13.6368 </r>
       <r>     0.3297     0.3243    13.6563 </r>
       <r>     0.3896     0.4155    13.6811 </r>
       <r>     0.4495     1.1477    13.7500 </r>
       <r>     0.5095     0.0015    13.7501 </r>
       <r>     0.5694     1.1182    13.8171 </r>
       <r>     0.6293     1.8240    13.9265 </r>
       <r>     0.6892     3.2534    14.1215 </r>
       <r>     0.7492     3.5963    14.3370 </r>
       <r>     0.8091     0.1112    14.3438 </r>
       <r>     0.8690     0.0000    14.3438 </r>
       <r>     0.9290     0.0000    14.3438 </r>
       <r>     0.9889     0.0000    14.3438 </r>
       <r>     1.0488     0.6671    14.3837 </r>
       <r>     1.1087     1.6361    14.4818 </r>
       <r>     1.1687     0.8236    14.5313 </r>
       <r>     1.2286     0.5741    14.5657 </r>
       <r>     1.2885     1.9533    14.6827 </r>
       <r>     1.3485     2.2917    14.8201 </r>
       <r>     1.4084     4.0906    15.0653 </r>
       <r>     1.4683     4.1191    15.3122 </r>
       <r>     1.5283     4.9225    15.6073 </r>
       <r>     1.5882     0.8412    15.6579 </r>
       <r>     1.6481     3.5325    15.8696 </r>
       <r>     1.7080     3.9499    16.1063 </r>
       <r>     1.7680     3.6866    16.3274 </r>
       <r>     1.8279     6.5391    16.7193 </r>
       <r>     1.8878     4.3374    16.9794 </r>
       <r>     1.9478     4.1361    17.2274 </r>
       <r>     2.0077     5.6864    17.5683 </r>
       <r>     2.0676     5.3647    17.8900 </r>
       <r>     2.1275     1.1649    17.9600 </r>
       <r>     2.1875     4.2747    18.2162 </r>
       <r>     2.2474     5.3834    18.5389 </r>
       <r>     2.3073     4.5546    18.8119 </r>
       <r>     2.3673     3.7955    19.0394 </r>
       <r>     2.4272     3.8636    19.2711 </r>
       <r>     2.4871     3.7578    19.4964 </r>
       <r>     2.5470     3.8460    19.7270 </r>
       <r>     2.6070     6.9466    20.1434 </r>
       <r>     2.6669     3.8902    20.3767 </r>
       <r>     2.7268     8.1618    20.8658 </r>
       <r>     2.7868     4.4404    21.1322 </r>
       <r>     2.8467     7.0807    21.5566 </r>
       <r>     2.9066     5.8216    21.9057 </r>
       <r>     2.9665     2.0384    22.0280 </r>
       <r>     3.0265     5.6969    22.3694 </r>
       <r>     3.0864     7.9243    22.8444 </r>
       <r>     3.1463     8.6196    23.3613 </r>
       <r>     3.2063     4.3765    23.6238 </r>
       <r>     3.2662     7.1863    24.0545 </r>
       <r>     3.3261     2.8403    24.2250 </r>
       <r>     3.3860     2.5784    24.3795 </r>
       <r>     3.4460     4.8431    24.6698 </r>
       <r>     3.5059     7.9610    25.1470 </r>
       <r>     3.5658     9.7013    25.7286 </r>
       <r>     3.6258     6.6127    26.1250 </r>
       <r>     3.6857     5.8221    26.4741 </r>
       <r>     3.7456     3.0145    26.6549 </r>
       <r>     3.8055     4.0311    26.8965 </r>
       <r>     3.8655     3.9924    27.1359 </r>
       <r>     3.9254     1.4001    27.2200 </r>
       <r>     3.9853     5.1656    27.5296 </r>
       <r>     4.0453     6.6543    27.9285 </r>
       <r>     4.1052     6.7604    28.3338 </r>
       <r>     4.1651     4.5673    28.6079 </r>
       <r>     4.2250     4.9261    28.9032 </r>
       <r>     4.2850     4.9816    29.2019 </r>
       <r>     4.3449     3.5907    29.4171 </r>
       <r>     4.4048     4.1848    29.6680 </r>
       <r>     4.4648     2.7399    29.8323 </r>
       <r>     4.5247     1.9504    29.9494 </r>
       <r>     4.5846     3.1954    30.1409 </r>
       <r>     4.6445     6.0103    30.5012 </r>
       <r>     4.7045     4.3844    30.7641 </r>
       <r>     4.7644     4.2594    31.0195 </r>
       <r>     4.8243     1.6287    31.1172 </r>
       <r>     4.8843     0.5221    31.1486 </r>
       <r>     4.9442     0.9066    31.2029 </r>
       <r>     5.0041     1.2389    31.2772 </r>
       <r>     5.0640     2.4507    31.4241 </r>
       <r>     5.1240     2.9578    31.6014 </r>
       <r>     5.1839     1.8222    31.7107 </r>
       <r>     5.2438     1.0388    31.7730 </r>
       <r>     5.3038     0.4943    31.8027 </r>
       <r>     5.3637     0.8784    31.8553 </r>
       <r>     5.4236     0.8542    31.9065 </r>
       <r>     5.4835     0.6972    31.9483 </r>
       <r>     5.5435     0.4702    31.9765 </r>
       <r>     5.6034     0.1303    31.9844 </r>
       <r>     5.6633     0.2601    32.0000 </r>
       <r>     5.7233     0.0000    32.0000 </r>
       <r>     5.7832     0.0000    32.0000 </r>
       <r>     5.8431     0.0000    32.0000 </r>
       <r>     5.9031     0.0000    32.0000 </r>
       <r>     5.9630     0.0000    32.0000 </r>
       <r>     6.0229     0.0000    32.0000 </r>
       <r>     6.0828     0.0000    32.0000 </r>
       <r>     6.1428     0.0000    32.0000 </r>
       <r>     6.2027     0.0000    32.0000 </r>
       <r>     6.2626     0.2737    32.0164 </r>
       <r>     6.3226     0.5080    32.0469 </r>
       <r>     6.3825     1.5885    32.1421 </r>
       <r>     6.4424     0.3659    32.1641 </r>
       <r>     6.5023     1.3040    32.2422 </r>
       <r>     6.5623     0.7607    32.2879 </r>
       <r>     6.6222     1.1411    32.3563 </r>
       <r>     6.6821     1.4483    32.4431 </r>
       <r>     6.7421     2.0410    32.5654 </r>
       <r>     6.8020     2.0089    32.6858 </r>
       <r>     6.8619     2.6054    32.8420 </r>
       <r>     6.9218     1.8546    32.9531 </r>
       <r>     6.9818     1.1717    33.0234 </r>
       <r>     7.0417     2.8034    33.1914 </r>
       <r>     7.1016     4.3037    33.4494 </r>
       <r>     7.1616     4.3674    33.7112 </r>
       <r>     7.2215     2.9082    33.8856 </r>
       <r>     7.2814     1.7487    33.9904 </r>
       <r>     7.3413     2.2183    34.1234 </r>
       <r>     7.4013     4.5590    34.3967 </r>
       <r>     7.4612     5.0585    34.7000 </r>
       <r>     7.5211     3.5152    34.9108 </r>
       <r>     7.5811     2.4990    35.0606 </r>
       <r>     7.6410     3.7614    35.2861 </r>
       <r>     7.7009     5.2146    35.5986 </r>
       <r>     7.7608    10.3934    36.2216 </r>
       <r>     7.8208     8.8047    36.7496 </r>
       <r>     7.8807     6.3031    37.1276 </r>
       <r>     7.9406     5.7583    37.4728 </r>
       <r>     8.0006     3.3729    37.6750 </r>
       <r>     8.0605     4.7083    37.9573 </r>
       <r>     8.1204     7.5579    38.4103 </r>
       <r>     8.1803     3.3243    38.6097 </r>
       <r>     8.2403     4.5665    38.8834 </r>
       <r>     8.3002     6.9615    39.3006 </r>
       <r>     8.3601     6.6690    39.7004 </r>
       <r>     8.4201     3.5774    39.9150 </r>
       <r>     8.4800     1.7834    40.0220 </r>
       <r>     8.5399     3.3591    40.2233 </r>
       <r>     8.5998     5.8425    40.5735 </r>
       <r>     8.6598     3.9956    40.8131 </r>
       <r>     8.7197     3.0826    40.9979 </r>
       <r>     8.7796     5.4311    41.3235 </r>
       <r>     8.8396     8.5574    41.8365 </r>
       <r>     8.8995     8.9131    42.3708 </r>
       <r>     8.9594    10.6102    43.0069 </r>
       <r>     9.0193     5.9019    43.3609 </r>
       <r>     9.0793     6.1495    43.7295 </r>
       <r>     9.1392     5.3663    44.0514 </r>
       <r>     9.1991     4.0516    44.2943 </r>
       <r>     9.2591     4.1321    44.5421 </r>
       <r>     9.3190     5.1293    44.8496 </r>
       <r>     9.3789     7.1443    45.2779 </r>
       <r>     9.4388     6.0109    45.6383 </r>
       <r>     9.4988     5.4513    45.9652 </r>
       <r>     9.5587     6.6113    46.3615 </r>
       <r>     9.6186     3.5632    46.5753 </r>
       <r>     9.6786     1.5073    46.6656 </r>
       <r>     9.7385     2.2352    46.7996 </r>
       <r>     9.7984     2.9098    46.9740 </r>
       <r>     9.8583     4.6276    47.2514 </r>
       <r>     9.9183     2.8062    47.4197 </r>
       <r>     9.9782     2.9661    47.5975 </r>
       <r>    10.0381     3.9369    47.8335 </r>
       <r>    10.0981     1.6191    47.9306 </r>
       <r>    10.1580     0.6970    47.9724 </r>
       <r>    10.2179     0.4593    48.0000 </r>
       <r>    10.2779     0.0000    48.0000 </r>
       <r>    10.3378     0.0000    48.0000 </r>
       <r>    10.3977     0.0000    48.0000 </r>
       <r>    10.4576     0.0000    48.0000 </r>
       <r>    10.5176     0.0000    48.0000 </r>
       <r>    10.5775     0.0000    48.0000 </r>
       <r>    10.6374     0.0000    48.0000 </r>
       <r>    10.6974     0.0000    48.0000 </r>
       <r>    10.7573     0.0000    48.0000 </r>
       <r>    10.8172     0.0000    48.0000 </r>
       <r>    10.8771     0.0000    48.0000 </r>
       <r>    10.9371     0.0000    48.0000 </r>
       <r>    10.9970     0.0000    48.0000 </r>
      </set>
     </set>
    </array>
   </total>
  </dos>
 </calculation>
 <structure name="finalpos" >
  <crystal>
   <varray name="basis" >
    <v>       5.46906415       0.00000000       0.00000000 </v>
    <v>       0.00000000       5.46906415       0.00000000 </v>
    <v>       0.00000000       0.00000000       5.46906415 </v>
   </varray>
   <i name="volume">    163.58333295 </i>
   <varray name="rec_basis" >
    <v>       0.18284664       0.00000000       0.00000000 </v>
    <v>       0.00000000       0.18284664       0.00000000 </v>
    <v>       0.00000000       0.00000000       0.18284664 </v>
   </varray>
  </crystal>
  <varray name="positions" >
   <v>       0.15215353       0.01899626       0.08018746 </v>
   <v>       0.39816167       0.24049089       0.35432692 </v>
   <v>       0.65073778       0.49969893       0.10008936 </v>
   <v>       0.90331199       0.76708508       0.33436006 </v>
   <v>       0.64616410       0.00808402       0.60493392 </v>
   <v>       0.89777757       0.26972910       0.82488646 </v>
   <v>       0.14658258       0.49829003       0.58308930 </v>
   <v>       0.38824209       0.73461992       0.84623054 </v>
  </varray>
 </structure>
</modeling>
