<?xml version="1.0" encoding="ISO-8859-1"?>
<modeling>
 <generator>
  <i name="program" type="string">vasp </i>
  <i name="version" type="string">5.4.1  </i>
  <i name="subversion" type="string">24Jun15 (build Jul  8 2015 13:29:37) complex                          parallel </i>
  <i name="platform" type="string">FX10FRT </i>
  <i name="date" type="string">2016 02 20 </i>
  <i name="time" type="string">07:00:11 </i>
 </generator>
 <incar>
  <i type="string" name="PREC">accurate</i>
  <i type="string" name="ALGO"> Normal</i>
  <i type="int" name="ISPIN">     1</i>
  <i type="int" name="IBRION">    -1</i>
  <i name="EDIFF">      0.00010000</i>
  <i type="int" name="NSW">     0</i>
  <i type="int" name="ISIF">     2</i>
  <i name="ENCUT">    400.00000000</i>
  <i type="int" name="ISMEAR">     2</i>
  <i name="SIGMA">      0.10000000</i>
  <i type="int" name="NWRITE">     1</i>
  <v type="int" name="KPOINT_BSE">    -1     0     0     0</v>
 </incar>
 <kpoints>
  <generation param="Monkhorst-Pack">
   <v type="int" name="divisions">      16       16       16 </v>
   <v name="usershift">      0.00000000       0.00000000       0.00000000 </v>
   <v name="genvec1">      0.06250000       0.00000000       0.00000000 </v>
   <v name="genvec2">      0.00000000       0.06250000       0.00000000 </v>
   <v name="genvec3">      0.00000000       0.00000000       0.06250000 </v>
   <v name="shift">      0.50000000       0.50000000       0.50000000 </v>
  </generation>
  <varray name="kpointlist" >
   <v>       0.03125000       0.03125000       0.03125000 </v>
   <v>       0.09375000       0.03125000       0.03125000 </v>
   <v>       0.15625000       0.03125000       0.03125000 </v>
   <v>       0.21875000       0.03125000       0.03125000 </v>
   <v>       0.28125000       0.03125000       0.03125000 </v>
   <v>       0.34375000       0.03125000       0.03125000 </v>
   <v>       0.40625000       0.03125000       0.03125000 </v>
   <v>       0.46875000       0.03125000       0.03125000 </v>
   <v>       0.03125000       0.09375000       0.03125000 </v>
   <v>       0.09375000       0.09375000       0.03125000 </v>
   <v>       0.15625000       0.09375000       0.03125000 </v>
   <v>       0.21875000       0.09375000       0.03125000 </v>
   <v>       0.28125000       0.09375000       0.03125000 </v>
   <v>       0.34375000       0.09375000       0.03125000 </v>
   <v>       0.40625000       0.09375000       0.03125000 </v>
   <v>       0.46875000       0.09375000       0.03125000 </v>
   <v>       0.03125000       0.15625000       0.03125000 </v>
   <v>       0.09375000       0.15625000       0.03125000 </v>
   <v>       0.15625000       0.15625000       0.03125000 </v>
   <v>       0.21875000       0.15625000       0.03125000 </v>
   <v>       0.28125000       0.15625000       0.03125000 </v>
   <v>       0.34375000       0.15625000       0.03125000 </v>
   <v>       0.40625000       0.15625000       0.03125000 </v>
   <v>       0.46875000       0.15625000       0.03125000 </v>
   <v>       0.03125000       0.21875000       0.03125000 </v>
   <v>       0.09375000       0.21875000       0.03125000 </v>
   <v>       0.15625000       0.21875000       0.03125000 </v>
   <v>       0.21875000       0.21875000       0.03125000 </v>
   <v>       0.28125000       0.21875000       0.03125000 </v>
   <v>       0.34375000       0.21875000       0.03125000 </v>
   <v>       0.40625000       0.21875000       0.03125000 </v>
   <v>       0.46875000       0.21875000       0.03125000 </v>
   <v>       0.03125000       0.28125000       0.03125000 </v>
   <v>       0.09375000       0.28125000       0.03125000 </v>
   <v>       0.15625000       0.28125000       0.03125000 </v>
   <v>       0.21875000       0.28125000       0.03125000 </v>
   <v>       0.28125000       0.28125000       0.03125000 </v>
   <v>       0.34375000       0.28125000       0.03125000 </v>
   <v>       0.40625000       0.28125000       0.03125000 </v>
   <v>       0.46875000       0.28125000       0.03125000 </v>
   <v>       0.03125000       0.34375000       0.03125000 </v>
   <v>       0.09375000       0.34375000       0.03125000 </v>
   <v>       0.15625000       0.34375000       0.03125000 </v>
   <v>       0.21875000       0.34375000       0.03125000 </v>
   <v>       0.28125000       0.34375000       0.03125000 </v>
   <v>       0.34375000       0.34375000       0.03125000 </v>
   <v>       0.40625000       0.34375000       0.03125000 </v>
   <v>       0.46875000       0.34375000       0.03125000 </v>
   <v>       0.03125000       0.40625000       0.03125000 </v>
   <v>       0.09375000       0.40625000       0.03125000 </v>
   <v>       0.15625000       0.40625000       0.03125000 </v>
   <v>       0.21875000       0.40625000       0.03125000 </v>
   <v>       0.28125000       0.40625000       0.03125000 </v>
   <v>       0.34375000       0.40625000       0.03125000 </v>
   <v>       0.40625000       0.40625000       0.03125000 </v>
   <v>       0.46875000       0.40625000       0.03125000 </v>
   <v>       0.03125000       0.46875000       0.03125000 </v>
   <v>       0.09375000       0.46875000       0.03125000 </v>
   <v>       0.15625000       0.46875000       0.03125000 </v>
   <v>       0.21875000       0.46875000       0.03125000 </v>
   <v>       0.28125000       0.46875000       0.03125000 </v>
   <v>       0.34375000       0.46875000       0.03125000 </v>
   <v>       0.40625000       0.46875000       0.03125000 </v>
   <v>       0.46875000       0.46875000       0.03125000 </v>
   <v>       0.03125000       0.09375000       0.09375000 </v>
   <v>       0.09375000       0.09375000       0.09375000 </v>
   <v>       0.15625000       0.09375000       0.09375000 </v>
   <v>       0.21875000       0.09375000       0.09375000 </v>
   <v>       0.28125000       0.09375000       0.09375000 </v>
   <v>       0.34375000       0.09375000       0.09375000 </v>
   <v>       0.40625000       0.09375000       0.09375000 </v>
   <v>       0.46875000       0.09375000       0.09375000 </v>
   <v>       0.03125000       0.15625000       0.09375000 </v>
   <v>       0.09375000       0.15625000       0.09375000 </v>
   <v>       0.15625000       0.15625000       0.09375000 </v>
   <v>       0.21875000       0.15625000       0.09375000 </v>
   <v>       0.28125000       0.15625000       0.09375000 </v>
   <v>       0.34375000       0.15625000       0.09375000 </v>
   <v>       0.40625000       0.15625000       0.09375000 </v>
   <v>       0.46875000       0.15625000       0.09375000 </v>
   <v>       0.03125000       0.21875000       0.09375000 </v>
   <v>       0.09375000       0.21875000       0.09375000 </v>
   <v>       0.15625000       0.21875000       0.09375000 </v>
   <v>       0.21875000       0.21875000       0.09375000 </v>
   <v>       0.28125000       0.21875000       0.09375000 </v>
   <v>       0.34375000       0.21875000       0.09375000 </v>
   <v>       0.40625000       0.21875000       0.09375000 </v>
   <v>       0.46875000       0.21875000       0.09375000 </v>
   <v>       0.03125000       0.28125000       0.09375000 </v>
   <v>       0.09375000       0.28125000       0.09375000 </v>
   <v>       0.15625000       0.28125000       0.09375000 </v>
   <v>       0.21875000       0.28125000       0.09375000 </v>
   <v>       0.28125000       0.28125000       0.09375000 </v>
   <v>       0.34375000       0.28125000       0.09375000 </v>
   <v>       0.40625000       0.28125000       0.09375000 </v>
   <v>       0.46875000       0.28125000       0.09375000 </v>
   <v>       0.03125000       0.34375000       0.09375000 </v>
   <v>       0.09375000       0.34375000       0.09375000 </v>
   <v>       0.15625000       0.34375000       0.09375000 </v>
   <v>       0.21875000       0.34375000       0.09375000 </v>
   <v>       0.28125000       0.34375000       0.09375000 </v>
   <v>       0.34375000       0.34375000       0.09375000 </v>
   <v>       0.40625000       0.34375000       0.09375000 </v>
   <v>       0.46875000       0.34375000       0.09375000 </v>
   <v>       0.03125000       0.40625000       0.09375000 </v>
   <v>       0.09375000       0.40625000       0.09375000 </v>
   <v>       0.15625000       0.40625000       0.09375000 </v>
   <v>       0.21875000       0.40625000       0.09375000 </v>
   <v>       0.28125000       0.40625000       0.09375000 </v>
   <v>       0.34375000       0.40625000       0.09375000 </v>
   <v>       0.40625000       0.40625000       0.09375000 </v>
   <v>       0.46875000       0.40625000       0.09375000 </v>
   <v>       0.03125000       0.46875000       0.09375000 </v>
   <v>       0.09375000       0.46875000       0.09375000 </v>
   <v>       0.15625000       0.46875000       0.09375000 </v>
   <v>       0.21875000       0.46875000       0.09375000 </v>
   <v>       0.28125000       0.46875000       0.09375000 </v>
   <v>       0.34375000       0.46875000       0.09375000 </v>
   <v>       0.40625000       0.46875000       0.09375000 </v>
   <v>       0.46875000       0.46875000       0.09375000 </v>
   <v>       0.03125000       0.15625000       0.15625000 </v>
   <v>       0.09375000       0.15625000       0.15625000 </v>
   <v>       0.15625000       0.15625000       0.15625000 </v>
   <v>       0.21875000       0.15625000       0.15625000 </v>
   <v>       0.28125000       0.15625000       0.15625000 </v>
   <v>       0.34375000       0.15625000       0.15625000 </v>
   <v>       0.40625000       0.15625000       0.15625000 </v>
   <v>       0.46875000       0.15625000       0.15625000 </v>
   <v>       0.03125000       0.21875000       0.15625000 </v>
   <v>       0.09375000       0.21875000       0.15625000 </v>
   <v>       0.15625000       0.21875000       0.15625000 </v>
   <v>       0.21875000       0.21875000       0.15625000 </v>
   <v>       0.28125000       0.21875000       0.15625000 </v>
   <v>       0.34375000       0.21875000       0.15625000 </v>
   <v>       0.40625000       0.21875000       0.15625000 </v>
   <v>       0.46875000       0.21875000       0.15625000 </v>
   <v>       0.03125000       0.28125000       0.15625000 </v>
   <v>       0.09375000       0.28125000       0.15625000 </v>
   <v>       0.15625000       0.28125000       0.15625000 </v>
   <v>       0.21875000       0.28125000       0.15625000 </v>
   <v>       0.28125000       0.28125000       0.15625000 </v>
   <v>       0.34375000       0.28125000       0.15625000 </v>
   <v>       0.40625000       0.28125000       0.15625000 </v>
   <v>       0.46875000       0.28125000       0.15625000 </v>
   <v>       0.03125000       0.34375000       0.15625000 </v>
   <v>       0.09375000       0.34375000       0.15625000 </v>
   <v>       0.15625000       0.34375000       0.15625000 </v>
   <v>       0.21875000       0.34375000       0.15625000 </v>
   <v>       0.28125000       0.34375000       0.15625000 </v>
   <v>       0.34375000       0.34375000       0.15625000 </v>
   <v>       0.40625000       0.34375000       0.15625000 </v>
   <v>       0.46875000       0.34375000       0.15625000 </v>
   <v>       0.03125000       0.40625000       0.15625000 </v>
   <v>       0.09375000       0.40625000       0.15625000 </v>
   <v>       0.15625000       0.40625000       0.15625000 </v>
   <v>       0.21875000       0.40625000       0.15625000 </v>
   <v>       0.28125000       0.40625000       0.15625000 </v>
   <v>       0.34375000       0.40625000       0.15625000 </v>
   <v>       0.40625000       0.40625000       0.15625000 </v>
   <v>       0.46875000       0.40625000       0.15625000 </v>
   <v>       0.03125000       0.46875000       0.15625000 </v>
   <v>       0.09375000       0.46875000       0.15625000 </v>
   <v>       0.15625000       0.46875000       0.15625000 </v>
   <v>       0.21875000       0.46875000       0.15625000 </v>
   <v>       0.28125000       0.46875000       0.15625000 </v>
   <v>       0.34375000       0.46875000       0.15625000 </v>
   <v>       0.40625000       0.46875000       0.15625000 </v>
   <v>       0.46875000       0.46875000       0.15625000 </v>
   <v>       0.03125000       0.21875000       0.21875000 </v>
   <v>       0.09375000       0.21875000       0.21875000 </v>
   <v>       0.15625000       0.21875000       0.21875000 </v>
   <v>       0.21875000       0.21875000       0.21875000 </v>
   <v>       0.28125000       0.21875000       0.21875000 </v>
   <v>       0.34375000       0.21875000       0.21875000 </v>
   <v>       0.40625000       0.21875000       0.21875000 </v>
   <v>       0.46875000       0.21875000       0.21875000 </v>
   <v>       0.03125000       0.28125000       0.21875000 </v>
   <v>       0.09375000       0.28125000       0.21875000 </v>
   <v>       0.15625000       0.28125000       0.21875000 </v>
   <v>       0.21875000       0.28125000       0.21875000 </v>
   <v>       0.28125000       0.28125000       0.21875000 </v>
   <v>       0.34375000       0.28125000       0.21875000 </v>
   <v>       0.40625000       0.28125000       0.21875000 </v>
   <v>       0.46875000       0.28125000       0.21875000 </v>
   <v>       0.03125000       0.34375000       0.21875000 </v>
   <v>       0.09375000       0.34375000       0.21875000 </v>
   <v>       0.15625000       0.34375000       0.21875000 </v>
   <v>       0.21875000       0.34375000       0.21875000 </v>
   <v>       0.28125000       0.34375000       0.21875000 </v>
   <v>       0.34375000       0.34375000       0.21875000 </v>
   <v>       0.40625000       0.34375000       0.21875000 </v>
   <v>       0.46875000       0.34375000       0.21875000 </v>
   <v>       0.03125000       0.40625000       0.21875000 </v>
   <v>       0.09375000       0.40625000       0.21875000 </v>
   <v>       0.15625000       0.40625000       0.21875000 </v>
   <v>       0.21875000       0.40625000       0.21875000 </v>
   <v>       0.28125000       0.40625000       0.21875000 </v>
   <v>       0.34375000       0.40625000       0.21875000 </v>
   <v>       0.40625000       0.40625000       0.21875000 </v>
   <v>       0.46875000       0.40625000       0.21875000 </v>
   <v>       0.03125000       0.46875000       0.21875000 </v>
   <v>       0.09375000       0.46875000       0.21875000 </v>
   <v>       0.15625000       0.46875000       0.21875000 </v>
   <v>       0.21875000       0.46875000       0.21875000 </v>
   <v>       0.28125000       0.46875000       0.21875000 </v>
   <v>       0.34375000       0.46875000       0.21875000 </v>
   <v>       0.40625000       0.46875000       0.21875000 </v>
   <v>       0.46875000       0.46875000       0.21875000 </v>
   <v>       0.03125000       0.28125000       0.28125000 </v>
   <v>       0.09375000       0.28125000       0.28125000 </v>
   <v>       0.15625000       0.28125000       0.28125000 </v>
   <v>       0.21875000       0.28125000       0.28125000 </v>
   <v>       0.28125000       0.28125000       0.28125000 </v>
   <v>       0.34375000       0.28125000       0.28125000 </v>
   <v>       0.40625000       0.28125000       0.28125000 </v>
   <v>       0.46875000       0.28125000       0.28125000 </v>
   <v>       0.03125000       0.34375000       0.28125000 </v>
   <v>       0.09375000       0.34375000       0.28125000 </v>
   <v>       0.15625000       0.34375000       0.28125000 </v>
   <v>       0.21875000       0.34375000       0.28125000 </v>
   <v>       0.28125000       0.34375000       0.28125000 </v>
   <v>       0.34375000       0.34375000       0.28125000 </v>
   <v>       0.40625000       0.34375000       0.28125000 </v>
   <v>       0.46875000       0.34375000       0.28125000 </v>
   <v>       0.03125000       0.40625000       0.28125000 </v>
   <v>       0.09375000       0.40625000       0.28125000 </v>
   <v>       0.15625000       0.40625000       0.28125000 </v>
   <v>       0.21875000       0.40625000       0.28125000 </v>
   <v>       0.28125000       0.40625000       0.28125000 </v>
   <v>       0.34375000       0.40625000       0.28125000 </v>
   <v>       0.40625000       0.40625000       0.28125000 </v>
   <v>       0.46875000       0.40625000       0.28125000 </v>
   <v>       0.03125000       0.46875000       0.28125000 </v>
   <v>       0.09375000       0.46875000       0.28125000 </v>
   <v>       0.15625000       0.46875000       0.28125000 </v>
   <v>       0.21875000       0.46875000       0.28125000 </v>
   <v>       0.28125000       0.46875000       0.28125000 </v>
   <v>       0.34375000       0.46875000       0.28125000 </v>
   <v>       0.40625000       0.46875000       0.28125000 </v>
   <v>       0.46875000       0.46875000       0.28125000 </v>
   <v>       0.03125000       0.34375000       0.34375000 </v>
   <v>       0.09375000       0.34375000       0.34375000 </v>
   <v>       0.15625000       0.34375000       0.34375000 </v>
   <v>       0.21875000       0.34375000       0.34375000 </v>
   <v>       0.28125000       0.34375000       0.34375000 </v>
   <v>       0.34375000       0.34375000       0.34375000 </v>
   <v>       0.40625000       0.34375000       0.34375000 </v>
   <v>       0.46875000       0.34375000       0.34375000 </v>
   <v>       0.03125000       0.40625000       0.34375000 </v>
   <v>       0.09375000       0.40625000       0.34375000 </v>
   <v>       0.15625000       0.40625000       0.34375000 </v>
   <v>       0.21875000       0.40625000       0.34375000 </v>
   <v>       0.28125000       0.40625000       0.34375000 </v>
   <v>       0.34375000       0.40625000       0.34375000 </v>
   <v>       0.40625000       0.40625000       0.34375000 </v>
   <v>       0.46875000       0.40625000       0.34375000 </v>
   <v>       0.03125000       0.46875000       0.34375000 </v>
   <v>       0.09375000       0.46875000       0.34375000 </v>
   <v>       0.15625000       0.46875000       0.34375000 </v>
   <v>       0.21875000       0.46875000       0.34375000 </v>
   <v>       0.28125000       0.46875000       0.34375000 </v>
   <v>       0.34375000       0.46875000       0.34375000 </v>
   <v>       0.40625000       0.46875000       0.34375000 </v>
   <v>       0.46875000       0.46875000       0.34375000 </v>
   <v>       0.03125000       0.40625000       0.40625000 </v>
   <v>       0.09375000       0.40625000       0.40625000 </v>
   <v>       0.15625000       0.40625000       0.40625000 </v>
   <v>       0.21875000       0.40625000       0.40625000 </v>
   <v>       0.28125000       0.40625000       0.40625000 </v>
   <v>       0.34375000       0.40625000       0.40625000 </v>
   <v>       0.40625000       0.40625000       0.40625000 </v>
   <v>       0.46875000       0.40625000       0.40625000 </v>
   <v>       0.03125000       0.46875000       0.40625000 </v>
   <v>       0.09375000       0.46875000       0.40625000 </v>
   <v>       0.15625000       0.46875000       0.40625000 </v>
   <v>       0.21875000       0.46875000       0.40625000 </v>
   <v>       0.28125000       0.46875000       0.40625000 </v>
   <v>       0.34375000       0.46875000       0.40625000 </v>
   <v>       0.40625000       0.46875000       0.40625000 </v>
   <v>       0.46875000       0.46875000       0.40625000 </v>
   <v>       0.03125000       0.46875000       0.46875000 </v>
   <v>       0.09375000       0.46875000       0.46875000 </v>
   <v>       0.15625000       0.46875000       0.46875000 </v>
   <v>       0.21875000       0.46875000       0.46875000 </v>
   <v>       0.28125000       0.46875000       0.46875000 </v>
   <v>       0.34375000       0.46875000       0.46875000 </v>
   <v>       0.40625000       0.46875000       0.46875000 </v>
   <v>       0.46875000       0.46875000       0.46875000 </v>
  </varray>
  <varray name="weights" >
   <v>       0.00195312 </v>
   <v>       0.00195312 </v>
   <v>       0.00195312 </v>
   <v>       0.00195312 </v>
   <v>       0.00195312 </v>
   <v>       0.00195312 </v>
   <v>       0.00195312 </v>
   <v>       0.00195312 </v>
   <v>       0.00390625 </v>
   <v>       0.00390625 </v>
   <v>       0.00390625 </v>
   <v>       0.00390625 </v>
   <v>       0.00390625 </v>
   <v>       0.00390625 </v>
   <v>       0.00390625 </v>
   <v>       0.00390625 </v>
   <v>       0.00390625 </v>
   <v>       0.00390625 </v>
   <v>       0.00390625 </v>
   <v>       0.00390625 </v>
   <v>       0.00390625 </v>
   <v>       0.00390625 </v>
   <v>       0.00390625 </v>
   <v>       0.00390625 </v>
   <v>       0.00390625 </v>
   <v>       0.00390625 </v>
   <v>       0.00390625 </v>
   <v>       0.00390625 </v>
   <v>       0.00390625 </v>
   <v>       0.00390625 </v>
   <v>       0.00390625 </v>
   <v>       0.00390625 </v>
   <v>       0.00390625 </v>
   <v>       0.00390625 </v>
   <v>       0.00390625 </v>
   <v>       0.00390625 </v>
   <v>       0.00390625 </v>
   <v>       0.00390625 </v>
   <v>       0.00390625 </v>
   <v>       0.00390625 </v>
   <v>       0.00390625 </v>
   <v>       0.00390625 </v>
   <v>       0.00390625 </v>
   <v>       0.00390625 </v>
   <v>       0.00390625 </v>
   <v>       0.00390625 </v>
   <v>       0.00390625 </v>
   <v>       0.00390625 </v>
   <v>       0.00390625 </v>
   <v>       0.00390625 </v>
   <v>       0.00390625 </v>
   <v>       0.00390625 </v>
   <v>       0.00390625 </v>
   <v>       0.00390625 </v>
   <v>       0.00390625 </v>
   <v>       0.00390625 </v>
   <v>       0.00390625 </v>
   <v>       0.00390625 </v>
   <v>       0.00390625 </v>
   <v>       0.00390625 </v>
   <v>       0.00390625 </v>
   <v>       0.00390625 </v>
   <v>       0.00390625 </v>
   <v>       0.00390625 </v>
   <v>       0.00195312 </v>
   <v>       0.00195312 </v>
   <v>       0.00195312 </v>
   <v>       0.00195312 </v>
   <v>       0.00195312 </v>
   <v>       0.00195312 </v>
   <v>       0.00195312 </v>
   <v>       0.00195312 </v>
   <v>       0.00390625 </v>
   <v>       0.00390625 </v>
   <v>       0.00390625 </v>
   <v>       0.00390625 </v>
   <v>       0.00390625 </v>
   <v>       0.00390625 </v>
   <v>       0.00390625 </v>
   <v>       0.00390625 </v>
   <v>       0.00390625 </v>
   <v>       0.00390625 </v>
   <v>       0.00390625 </v>
   <v>       0.00390625 </v>
   <v>       0.00390625 </v>
   <v>       0.00390625 </v>
   <v>       0.00390625 </v>
   <v>       0.00390625 </v>
   <v>       0.00390625 </v>
   <v>       0.00390625 </v>
   <v>       0.00390625 </v>
   <v>       0.00390625 </v>
   <v>       0.00390625 </v>
   <v>       0.00390625 </v>
   <v>       0.00390625 </v>
   <v>       0.00390625 </v>
   <v>       0.00390625 </v>
   <v>       0.00390625 </v>
   <v>       0.00390625 </v>
   <v>       0.00390625 </v>
   <v>       0.00390625 </v>
   <v>       0.00390625 </v>
   <v>       0.00390625 </v>
   <v>       0.00390625 </v>
   <v>       0.00390625 </v>
   <v>       0.00390625 </v>
   <v>       0.00390625 </v>
   <v>       0.00390625 </v>
   <v>       0.00390625 </v>
   <v>       0.00390625 </v>
   <v>       0.00390625 </v>
   <v>       0.00390625 </v>
   <v>       0.00390625 </v>
   <v>       0.00390625 </v>
   <v>       0.00390625 </v>
   <v>       0.00390625 </v>
   <v>       0.00390625 </v>
   <v>       0.00390625 </v>
   <v>       0.00390625 </v>
   <v>       0.00390625 </v>
   <v>       0.00195312 </v>
   <v>       0.00195312 </v>
   <v>       0.00195312 </v>
   <v>       0.00195312 </v>
   <v>       0.00195312 </v>
   <v>       0.00195312 </v>
   <v>       0.00195312 </v>
   <v>       0.00195312 </v>
   <v>       0.00390625 </v>
   <v>       0.00390625 </v>
   <v>       0.00390625 </v>
   <v>       0.00390625 </v>
   <v>       0.00390625 </v>
   <v>       0.00390625 </v>
   <v>       0.00390625 </v>
   <v>       0.00390625 </v>
   <v>       0.00390625 </v>
   <v>       0.00390625 </v>
   <v>       0.00390625 </v>
   <v>       0.00390625 </v>
   <v>       0.00390625 </v>
   <v>       0.00390625 </v>
   <v>       0.00390625 </v>
   <v>       0.00390625 </v>
   <v>       0.00390625 </v>
   <v>       0.00390625 </v>
   <v>       0.00390625 </v>
   <v>       0.00390625 </v>
   <v>       0.00390625 </v>
   <v>       0.00390625 </v>
   <v>       0.00390625 </v>
   <v>       0.00390625 </v>
   <v>       0.00390625 </v>
   <v>       0.00390625 </v>
   <v>       0.00390625 </v>
   <v>       0.00390625 </v>
   <v>       0.00390625 </v>
   <v>       0.00390625 </v>
   <v>       0.00390625 </v>
   <v>       0.00390625 </v>
   <v>       0.00390625 </v>
   <v>       0.00390625 </v>
   <v>       0.00390625 </v>
   <v>       0.00390625 </v>
   <v>       0.00390625 </v>
   <v>       0.00390625 </v>
   <v>       0.00390625 </v>
   <v>       0.00390625 </v>
   <v>       0.00195312 </v>
   <v>       0.00195312 </v>
   <v>       0.00195312 </v>
   <v>       0.00195312 </v>
   <v>       0.00195312 </v>
   <v>       0.00195312 </v>
   <v>       0.00195312 </v>
   <v>       0.00195312 </v>
   <v>       0.00390625 </v>
   <v>       0.00390625 </v>
   <v>       0.00390625 </v>
   <v>       0.00390625 </v>
   <v>       0.00390625 </v>
   <v>       0.00390625 </v>
   <v>       0.00390625 </v>
   <v>       0.00390625 </v>
   <v>       0.00390625 </v>
   <v>       0.00390625 </v>
   <v>       0.00390625 </v>
   <v>       0.00390625 </v>
   <v>       0.00390625 </v>
   <v>       0.00390625 </v>
   <v>       0.00390625 </v>
   <v>       0.00390625 </v>
   <v>       0.00390625 </v>
   <v>       0.00390625 </v>
   <v>       0.00390625 </v>
   <v>       0.00390625 </v>
   <v>       0.00390625 </v>
   <v>       0.00390625 </v>
   <v>       0.00390625 </v>
   <v>       0.00390625 </v>
   <v>       0.00390625 </v>
   <v>       0.00390625 </v>
   <v>       0.00390625 </v>
   <v>       0.00390625 </v>
   <v>       0.00390625 </v>
   <v>       0.00390625 </v>
   <v>       0.00390625 </v>
   <v>       0.00390625 </v>
   <v>       0.00195312 </v>
   <v>       0.00195312 </v>
   <v>       0.00195312 </v>
   <v>       0.00195312 </v>
   <v>       0.00195312 </v>
   <v>       0.00195312 </v>
   <v>       0.00195312 </v>
   <v>       0.00195312 </v>
   <v>       0.00390625 </v>
   <v>       0.00390625 </v>
   <v>       0.00390625 </v>
   <v>       0.00390625 </v>
   <v>       0.00390625 </v>
   <v>       0.00390625 </v>
   <v>       0.00390625 </v>
   <v>       0.00390625 </v>
   <v>       0.00390625 </v>
   <v>       0.00390625 </v>
   <v>       0.00390625 </v>
   <v>       0.00390625 </v>
   <v>       0.00390625 </v>
   <v>       0.00390625 </v>
   <v>       0.00390625 </v>
   <v>       0.00390625 </v>
   <v>       0.00390625 </v>
   <v>       0.00390625 </v>
   <v>       0.00390625 </v>
   <v>       0.00390625 </v>
   <v>       0.00390625 </v>
   <v>       0.00390625 </v>
   <v>       0.00390625 </v>
   <v>       0.00390625 </v>
   <v>       0.00195312 </v>
   <v>       0.00195312 </v>
   <v>       0.00195312 </v>
   <v>       0.00195312 </v>
   <v>       0.00195312 </v>
   <v>       0.00195312 </v>
   <v>       0.00195312 </v>
   <v>       0.00195312 </v>
   <v>       0.00390625 </v>
   <v>       0.00390625 </v>
   <v>       0.00390625 </v>
   <v>       0.00390625 </v>
   <v>       0.00390625 </v>
   <v>       0.00390625 </v>
   <v>       0.00390625 </v>
   <v>       0.00390625 </v>
   <v>       0.00390625 </v>
   <v>       0.00390625 </v>
   <v>       0.00390625 </v>
   <v>       0.00390625 </v>
   <v>       0.00390625 </v>
   <v>       0.00390625 </v>
   <v>       0.00390625 </v>
   <v>       0.00390625 </v>
   <v>       0.00195312 </v>
   <v>       0.00195312 </v>
   <v>       0.00195312 </v>
   <v>       0.00195312 </v>
   <v>       0.00195312 </v>
   <v>       0.00195312 </v>
   <v>       0.00195312 </v>
   <v>       0.00195312 </v>
   <v>       0.00390625 </v>
   <v>       0.00390625 </v>
   <v>       0.00390625 </v>
   <v>       0.00390625 </v>
   <v>       0.00390625 </v>
   <v>       0.00390625 </v>
   <v>       0.00390625 </v>
   <v>       0.00390625 </v>
   <v>       0.00195312 </v>
   <v>       0.00195312 </v>
   <v>       0.00195312 </v>
   <v>       0.00195312 </v>
   <v>       0.00195312 </v>
   <v>       0.00195312 </v>
   <v>       0.00195312 </v>
   <v>       0.00195312 </v>
  </varray>
 </kpoints>
 <parameters>
  <separator name="general" >
   <i type="string" name="SYSTEM">unknown system</i>
   <i type="logical" name="LCOMPAT"> F  </i>
  </separator>
  <separator name="electronic" >
   <i type="string" name="PREC">accura</i>
   <i name="ENMAX">    400.00000000</i>
   <i name="ENAUG">    322.06900000</i>
   <i name="EDIFF">      0.00010000</i>
   <i type="int" name="IALGO">    38</i>
   <i type="int" name="IWAVPR">    10</i>
   <i type="int" name="NBANDS">     8</i>
   <i name="NELECT">      8.00000000</i>
   <i type="int" name="TURBO">     0</i>
   <i type="int" name="IRESTART">     0</i>
   <i type="int" name="NREBOOT">     0</i>
   <i type="int" name="NMIN">     0</i>
   <i name="EREF">      0.00000000</i>
   <separator name="electronic smearing" >
    <i type="int" name="ISMEAR">     2</i>
    <i name="SIGMA">      0.10000000</i>
    <i name="KSPACING">      0.50000000</i>
    <i type="logical" name="KGAMMA"> T  </i>
   </separator>
   <separator name="electronic projectors" >
    <i type="logical" name="LREAL"> F  </i>
    <v name="ROPT">      0.00000000</v>
    <i type="int" name="LMAXPAW">  -100</i>
    <i type="int" name="LMAXMIX">     2</i>
    <i type="logical" name="NLSPLINE"> F  </i>
   </separator>
   <separator name="electronic startup" >
    <i type="int" name="ISTART">     0</i>
    <i type="int" name="ICHARG">     2</i>
    <i type="int" name="INIWAV">     1</i>
   </separator>
   <separator name="electronic spin" >
    <i type="int" name="ISPIN">     1</i>
    <i type="logical" name="LNONCOLLINEAR"> F  </i>
    <v name="MAGMOM">      1.00000000      1.00000000</v>
    <i name="NUPDOWN">     -1.00000000</i>
    <i type="logical" name="LSORBIT"> F  </i>
    <v name="SAXIS">      0.00000000      0.00000000      1.00000000</v>
    <i type="logical" name="LSPIRAL"> F  </i>
    <v name="QSPIRAL">      0.00000000      0.00000000      0.00000000</v>
    <i type="logical" name="LZEROZ"> F  </i>
   </separator>
   <separator name="electronic exchange-correlation" >
    <i type="logical" name="LASPH"> F  </i>
    <i type="logical" name="LMETAGGA"> F  </i>
   </separator>
   <separator name="electronic convergence" >
    <i type="int" name="NELM">    60</i>
    <i type="int" name="NELMDL">    -5</i>
    <i type="int" name="NELMIN">     2</i>
    <i name="ENINI">    400.00000000</i>
    <separator name="electronic convergence detail" >
     <i type="logical" name="LDIAG"> T  </i>
     <i type="logical" name="LSUBROT"> F  </i>
     <i name="WEIMIN">      0.00000000</i>
     <i name="EBREAK">      0.00000313</i>
     <i name="DEPER">      0.30000000</i>
     <i type="int" name="NRMM">     4</i>
     <i name="TIME">      0.40000000</i>
    </separator>
   </separator>
   <separator name="electronic mixer" >
    <i name="AMIX">      0.40000000</i>
    <i name="BMIX">      1.00000000</i>
    <i name="AMIN">      0.10000000</i>
    <i name="AMIX_MAG">      1.60000000</i>
    <i name="BMIX_MAG">      1.00000000</i>
    <separator name="electronic mixer details" >
     <i type="int" name="IMIX">     4</i>
     <i type="logical" name="MIXFIRST"> F  </i>
     <i type="int" name="MAXMIX">   -45</i>
     <i name="WC">    100.00000000</i>
     <i type="int" name="INIMIX">     1</i>
     <i type="int" name="MIXPRE">     1</i>
     <i type="int" name="MREMOVE">     5</i>
    </separator>
   </separator>
   <separator name="electronic dipolcorrection" >
    <i type="logical" name="LDIPOL"> F  </i>
    <i type="logical" name="LMONO"> F  </i>
    <i type="int" name="IDIPOL">     0</i>
    <i name="EPSILON">      1.00000000</i>
    <v name="DIPOL">   -100.00000000   -100.00000000   -100.00000000</v>
    <i name="EFIELD">      0.00000000</i>
   </separator>
  </separator>
  <separator name="grids" >
   <i type="int" name="NGX">    20</i>
   <i type="int" name="NGY">    20</i>
   <i type="int" name="NGZ">    20</i>
   <i type="int" name="NGXF">    40</i>
   <i type="int" name="NGYF">    40</i>
   <i type="int" name="NGZF">    40</i>
   <i type="logical" name="ADDGRID"> F  </i>
  </separator>
  <separator name="ionic" >
   <i type="int" name="NSW">     0</i>
   <i type="int" name="IBRION">    -1</i>
   <i type="int" name="ISIF">     2</i>
   <i name="PSTRESS">      0.00000000</i>
   <i name="EDIFFG">      0.00100000</i>
   <i type="int" name="NFREE">     0</i>
   <i name="POTIM">      0.50000000</i>
   <i name="SMASS">     -3.00000000</i>
   <i name="SCALEE">      1.00000000</i>
  </separator>
  <separator name="ionic md" >
   <i name="TEBEG">      0.00010000</i>
   <i name="TEEND">      0.00010000</i>
   <i type="int" name="NBLOCK">     1</i>
   <i type="int" name="KBLOCK">     1</i>
   <i type="int" name="NPACO">   256</i>
   <i name="APACO">     16.00000000</i>
  </separator>
  <separator name="symmetry" >
   <i type="int" name="ISYM">     2</i>
   <i name="SYMPREC">      0.00001000</i>
  </separator>
  <separator name="dos" >
   <i type="logical" name="LORBIT"> F  </i>
   <v name="RWIGS">     -1.00000000</v>
   <i type="int" name="NEDOS">   301</i>
   <i name="EMIN">     10.00000000</i>
   <i name="EMAX">    -10.00000000</i>
   <i name="EFERMI">      0.00000000</i>
  </separator>
  <separator name="writing" >
   <i type="int" name="NWRITE">     1</i>
   <i type="logical" name="LWAVE"> T  </i>
   <i type="logical" name="LCHARG"> T  </i>
   <i type="logical" name="LPARD"> F  </i>
   <i type="logical" name="LVTOT"> F  </i>
   <i type="logical" name="LVHAR"> F  </i>
   <i type="logical" name="LELF"> F  </i>
   <i type="logical" name="LOPTICS"> F  </i>
   <v name="STM">      0.00000000      0.00000000      0.00000000      0.00000000      0.00000000      0.00000000      0.00000000</v>
  </separator>
  <separator name="performance" >
   <i type="int" name="NPAR">     8</i>
   <i type="int" name="NSIM">     4</i>
   <i type="int" name="NBLK">    -1</i>
   <i type="logical" name="LPLANE"> T  </i>
   <i type="logical" name="LSCALAPACK"> T  </i>
   <i type="logical" name="LSCAAWARE"> F  </i>
   <i type="logical" name="LSCALU"> F  </i>
   <i type="logical" name="LASYNC"> F  </i>
   <i type="logical" name="LORBITALREAL"> F  </i>
  </separator>
  <separator name="miscellaneous" >
   <i type="int" name="IDIOT">     3</i>
   <i type="logical" name="LMUSIC"> F  </i>
   <v name="POMASS">     28.08500000</v>
   <v name="DARWINR">      0.00000000</v>
   <v name="DARWINV">      1.00000000</v>
   <i type="logical" name="LCORR"> T  </i>
  </separator>
  <i type="logical" name="GGA_COMPAT"> T  </i>
  <i type="logical" name="LBERRY"> F  </i>
  <i type="int" name="ICORELEVEL">     0</i>
  <i type="logical" name="LDAU"> F  </i>
  <i type="int" name="I_CONSTRAINED_M">     0</i>
  <separator name="electronic exchange-correlation" >
   <i type="string" name="GGA">--</i>
   <i type="int" name="VOSKOWN">     0</i>
   <i type="logical" name="LHFCALC"> F  </i>
   <i type="string" name="PRECFOCK"></i>
   <i type="logical" name="LSYMGRAD"> F  </i>
   <i type="logical" name="LHFONE"> F  </i>
   <i type="logical" name="LRHFCALC"> F  </i>
   <i type="logical" name="LTHOMAS"> F  </i>
   <i type="logical" name="LMODELHF"> F  </i>
   <i name="ENCUT4O">     -1.00000000</i>
   <i type="int" name="EXXOEP">     0</i>
   <i type="int" name="FOURORBIT">     0</i>
   <i name="AEXX">      0.00000000</i>
   <i name="HFALPHA">      0.00000000</i>
   <i name="MCALPHA">      0.00000000</i>
   <i name="ALDAX">      1.00000000</i>
   <i name="AGGAX">      1.00000000</i>
   <i name="ALDAC">      1.00000000</i>
   <i name="AGGAC">      1.00000000</i>
   <i type="int" name="NKREDX">     1</i>
   <i type="int" name="NKREDY">     1</i>
   <i type="int" name="NKREDZ">     1</i>
   <i type="logical" name="SHIFTRED"> F  </i>
   <i type="logical" name="ODDONLY"> F  </i>
   <i type="logical" name="EVENONLY"> F  </i>
   <i type="int" name="LMAXFOCK">     0</i>
   <i type="int" name="NMAXFOCKAE">     0</i>
   <i type="logical" name="LFOCKAEDFT"> F  </i>
   <i name="HFSCREEN">      0.00000000</i>
   <i name="HFSCREENC">      0.00000000</i>
   <i type="int" name="NBANDSGWLOW">     0</i>
  </separator>
  <separator name="vdW DFT" >
   <i type="logical" name="LUSE_VDW"> F  </i>
   <i name="Zab_VDW">     -0.84910000</i>
   <i name="PARAM1">      0.12340000</i>
   <i name="PARAM2">      1.00000000</i>
   <i name="PARAM3">      0.00000000</i>
  </separator>
  <separator name="model GW" >
   <i type="int" name="MODEL_GW">     0</i>
   <i name="MODEL_EPS0">      8.36248061</i>
   <i name="MODEL_ALPHA">      1.00000000</i>
  </separator>
  <separator name="linear response parameters" >
   <i type="logical" name="LEPSILON"> F  </i>
   <i type="logical" name="LRPA"> F  </i>
   <i type="logical" name="LNABLA"> F  </i>
   <i type="logical" name="LVEL"> F  </i>
   <i type="int" name="KINTER">     0</i>
   <i name="CSHIFT">      0.10000000</i>
   <i name="OMEGAMAX">     -1.00000000</i>
   <i name="DEG_THRESHOLD">      0.00200000</i>
  </separator>
  <separator name="orbital magnetization" >
   <i type="logical" name="NUCIND"> F  </i>
   <v name="MAGPOS">      0.00000000      0.00000000      0.00000000</v>
   <i type="logical" name="LNICSALL"> T  </i>
   <i type="logical" name="ORBITALMAG"> F  </i>
   <i type="logical" name="LMAGBLOCH"> F  </i>
   <i type="logical" name="LCHIMAG"> F  </i>
   <i type="logical" name="LGAUGE"> T  </i>
   <i type="int" name="MAGATOM">     0</i>
   <v name="MAGDIPOL">      0.00000000      0.00000000      0.00000000</v>
   <v name="AVECCONST">      0.00000000      0.00000000      0.00000000</v>
  </separator>
  <separator name="response functions" >
   <i type="logical" name="LADDER"> F  </i>
   <i type="logical" name="LFXC"> F  </i>
   <i type="logical" name="LHARTREE"> T  </i>
   <i type="int" name="IBSE">     0</i>
   <v type="int" name="KPOINT">    -1     0     0     0</v>
   <i type="logical" name="LTCTE"> F  </i>
   <i type="logical" name="LTETE"> F  </i>
   <i type="logical" name="LTRIPLET"> F  </i>
   <i type="logical" name="LFXCEPS"> F  </i>
   <i type="logical" name="LFXHEG"> F  </i>
   <i type="int" name="NATURALO">     0</i>
   <i type="logical" name="L2ORDER"> F  </i>
   <i type="logical" name="LUSEW"> F  </i>
   <i name="ENCUTGW">     -2.00000000</i>
   <i name="ENCUTGWSOFT">     -2.00000000</i>
   <i name="ENCUTLF">     -1.00000000</i>
   <i type="int" name="LMAXMP2">    -1</i>
   <i name="SCISSOR">      0.00000000</i>
   <i type="int" name="NOMEGA">     0</i>
   <i type="int" name="NOMEGAR">     0</i>
   <i type="int" name="NBANDSGW">    -1</i>
   <i type="int" name="NBANDSO">    -1</i>
   <i type="int" name="NBANDSV">    -1</i>
   <i type="int" name="NELM">     1</i>
   <i type="int" name="NELMHF">     1</i>
   <i type="int" name="DIM">     3</i>
   <i type="int" name="ANTIRES">     0</i>
   <i name="OMEGAMAX">    -30.00000000</i>
   <i name="OMEGAMIN">    -30.00000000</i>
   <i name="OMEGATL">   -200.00000000</i>
   <i type="int" name="OMEGAGRID">     0</i>
   <i name="CSHIFT">     -0.10000000</i>
   <i type="logical" name="SELFENERGY"> F  </i>
   <i type="logical" name="LSPECTRAL"> F  </i>
   <i type="logical" name="LSPECTRALGW"> F  </i>
   <i type="logical" name="LSINGLES"> F  </i>
   <i type="logical" name="LFERMIGW"> F  </i>
   <i type="logical" name="ODDONLYGW"> F  </i>
   <i type="logical" name="EVENONLYGW"> F  </i>
   <i type="int" name="NKREDLFX">     1</i>
   <i type="int" name="NKREDLFY">     1</i>
   <i type="int" name="NKREDLFZ">     1</i>
   <i type="int" name="MAXMEM">  1800</i>
   <i type="int" name="TELESCOPE">     0</i>
   <i type="int" name="TAUPAR">     1</i>
   <i type="int" name="OMEGAPAR">    -1</i>
   <i name="LAMBDA">      1.00000000</i>
  </separator>
  <separator name="External order field" >
   <i name="OFIELD_KAPPA">      0.00000000</i>
   <v name="OFIELD_K">      0.00000000      0.00000000      0.00000000</v>
   <i name="OFIELD_Q6_NEAR">      0.00000000</i>
   <i name="OFIELD_Q6_FAR">      0.00000000</i>
   <i name="OFIELD_A">      0.00000000</i>
  </separator>
 </parameters>
 <atominfo>
  <atoms>       2 </atoms>
  <types>       1 </types>
  <array name="atoms" >
   <dimension dim="1">ion</dimension>
   <field type="string">element</field>
   <field type="int">atomtype</field>
   <set>
    <rc><c>Si</c><c>   1</c></rc>
    <rc><c>Si</c><c>   1</c></rc>
   </set>
  </array>
  <array name="atomtypes" >
   <dimension dim="1">type</dimension>
   <field type="int">atomspertype</field>
   <field type="string">element</field>
   <field>mass</field>
   <field>valence</field>
   <field type="string">pseudopotential</field>
   <set>
    <rc><c>   2</c><c>Si</c><c>     28.08500000</c><c>      4.00000000</c><c>  PAW_PBE Si 05Jan2001                  </c></rc>
   </set>
  </array>
 </atominfo>
 <structure name="initialpos" >
  <crystal>
   <varray name="basis" >
    <v>       2.99149770       0.00000000       0.00000000 </v>
    <v>       0.00000000       3.05254867       0.00000000 </v>
    <v>       0.00000000       0.00000000       3.05254867 </v>
   </varray>
   <i name="volume">     27.87493537 </i>
   <varray name="rec_basis" >
    <v>       0.33428072       0.00000000       0.00000000 </v>
    <v>       0.00000000       0.32759510       0.00000000 </v>
    <v>       0.00000000       0.00000000       0.32759510 </v>
   </varray>
  </crystal>
  <varray name="positions" >
   <v>       0.00000000       0.00000000       0.00000000 </v>
   <v>       0.50000000       0.50000000       0.50000000 </v>
  </varray>
 </structure>
 <calculation>
  <scstep>
   <time name="dav">    0.89    0.94</time>
   <time name="total">    0.93    1.01</time>
   <energy>
    <i name="alphaZ">      4.83059499 </i>
    <i name="ewald">   -276.53138859 </i>
    <i name="hartreedc">     -0.98491903 </i>
    <i name="XCdc">    -17.41560674 </i>
    <i name="pawpsdc">    176.24759923 </i>
    <i name="pawaedc">   -141.06103558 </i>
    <i name="eentropy">     -0.00022832 </i>
    <i name="bandstr">     50.57399143 </i>
    <i name="atom">    206.13149246 </i>
    <i name="e_fr_energy">      1.79049985 </i>
    <i name="e_wo_entrp">      1.79072817 </i>
    <i name="e_0_energy">      1.79055693 </i>
   </energy>
  </scstep>
  <scstep>
   <time name="dav">    1.31    1.32</time>
   <time name="total">    1.32    1.35</time>
   <energy>
    <i name="e_fr_energy">     -9.69406823 </i>
    <i name="e_wo_entrp">     -9.69404437 </i>
    <i name="e_0_energy">     -9.69406227 </i>
   </energy>
  </scstep>
  <scstep>
   <time name="dav">    1.19    1.20</time>
   <time name="total">    1.20    1.22</time>
   <energy>
    <i name="e_fr_energy">     -9.81720523 </i>
    <i name="e_wo_entrp">     -9.81702073 </i>
    <i name="e_0_energy">     -9.81715910 </i>
   </energy>
  </scstep>
  <scstep>
   <time name="dav">    1.24    1.25</time>
   <time name="total">    1.26    1.27</time>
   <energy>
    <i name="e_fr_energy">     -9.81745783 </i>
    <i name="e_wo_entrp">     -9.81726901 </i>
    <i name="e_0_energy">     -9.81741063 </i>
   </energy>
  </scstep>
  <scstep>
   <time name="dav">    1.20    1.20</time>
   <time name="total">    1.24    1.27</time>
   <energy>
    <i name="e_fr_energy">     -9.81745845 </i>
    <i name="e_wo_entrp">     -9.81726963 </i>
    <i name="e_0_energy">     -9.81741125 </i>
   </energy>
  </scstep>
  <scstep>
   <time name="dav">    1.07    1.07</time>
   <time name="total">    1.12    1.13</time>
   <energy>
    <i name="e_fr_energy">     -9.79453485 </i>
    <i name="e_wo_entrp">     -9.79433319 </i>
    <i name="e_0_energy">     -9.79448443 </i>
   </energy>
  </scstep>
  <scstep>
   <time name="dav">    1.07    1.06</time>
   <time name="total">    1.11    1.12</time>
   <energy>
    <i name="e_fr_energy">     -9.78142809 </i>
    <i name="e_wo_entrp">     -9.78120163 </i>
    <i name="e_0_energy">     -9.78137148 </i>
   </energy>
  </scstep>
  <scstep>
   <time name="dav">    1.19    1.18</time>
   <time name="total">    1.19    1.21</time>
   <energy>
    <i name="alphaZ">      4.83059499 </i>
    <i name="ewald">   -276.53138859 </i>
    <i name="hartreedc">     -0.72430818 </i>
    <i name="XCdc">    -17.28083701 </i>
    <i name="pawpsdc">    657.87138986 </i>
    <i name="pawaedc">   -622.73483762 </i>
    <i name="eentropy">     -0.00022796 </i>
    <i name="bandstr">     38.65676029 </i>
    <i name="atom">    206.13149246 </i>
    <i name="e_fr_energy">     -9.78136176 </i>
    <i name="e_wo_entrp">     -9.78113380 </i>
    <i name="e_0_energy">     -9.78130477 </i>
   </energy>
  </scstep>
  <structure>
   <crystal>
    <varray name="basis" >
     <v>       2.99149770       0.00000000       0.00000000 </v>
     <v>       0.00000000       3.05254867       0.00000000 </v>
     <v>       0.00000000       0.00000000       3.05254867 </v>
    </varray>
    <i name="volume">     27.87493537 </i>
    <varray name="rec_basis" >
     <v>       0.33428072       0.00000000       0.00000000 </v>
     <v>       0.00000000       0.32759510       0.00000000 </v>
     <v>       0.00000000       0.00000000       0.32759510 </v>
    </varray>
   </crystal>
   <varray name="positions" >
    <v>       0.00000000       0.00000000       0.00000000 </v>
    <v>       0.50000000       0.50000000       0.50000000 </v>
   </varray>
  </structure>
  <varray name="forces" >
   <v>       0.00000000       0.00000000       0.00000000 </v>
   <v>       0.00000000       0.00000000       0.00000000 </v>
  </varray>
  <varray name="stress" >
   <v>      43.63064866       0.00000000       0.00000000 </v>
   <v>       0.00000000      51.31123346       0.00000000 </v>
   <v>       0.00000000       0.00000000      51.31123346 </v>
  </varray>
  <energy>
   <i name="e_fr_energy">     -9.78136176 </i>
   <i name="e_wo_entrp">     -9.78130477 </i>
   <i name="e_0_energy">     -0.00022796 </i>
  </energy>
  <time name="totalsc">   10.15   10.36</time>
  <eigenvalues>
   <array>
    <dimension dim="1">band</dimension>
    <dimension dim="2">kpoint</dimension>
    <dimension dim="3">spin</dimension>
    <field>eigene</field>
    <field>occ</field>
    <set>
     <set comment="spin 1">
      <set comment="kpoint 1">
       <r>   -4.0751    1.0000 </r>
       <r>    9.5604    1.0000 </r>
       <r>    9.6061    1.0000 </r>
       <r>   10.1562    1.0000 </r>
       <r>   12.4040    0.0000 </r>
       <r>   12.9680    0.0000 </r>
       <r>   13.3753    0.0000 </r>
       <r>   21.6310    0.0000 </r>
      </set>
      <set comment="kpoint 2">
       <r>   -3.9480    1.0000 </r>
       <r>    8.7183    1.0000 </r>
       <r>    9.6764    1.0000 </r>
       <r>    9.7213    1.0000 </r>
       <r>   12.5413    0.0000 </r>
       <r>   13.0951    0.0000 </r>
       <r>   14.9935    0.0000 </r>
       <r>   20.7549    0.0000 </r>
      </set>
      <set comment="kpoint 3">
       <r>   -3.6942    1.0000 </r>
       <r>    7.1252    1.0000 </r>
       <r>    9.9062    1.0000 </r>
       <r>    9.9515    1.0000 </r>
       <r>   12.7790    0.0000 </r>
       <r>   13.3494    0.0000 </r>
       <r>   16.9810    0.0000 </r>
       <r>   19.5165    0.0000 </r>
      </set>
      <set comment="kpoint 4">
       <r>   -3.3141    1.0000 </r>
       <r>    5.5851    1.0000 </r>
       <r>   10.2509    0.9996 </r>
       <r>   10.2965    0.9979 </r>
       <r>   13.1290    0.0000 </r>
       <r>   13.7310    0.0000 </r>
       <r>   18.2186    0.0000 </r>
       <r>   18.3463    0.0000 </r>
      </set>
      <set comment="kpoint 5">
       <r>   -2.8084    1.0000 </r>
       <r>    4.1372    1.0000 </r>
       <r>   10.7096   -0.0032 </r>
       <r>   10.7561    0.0048 </r>
       <r>   13.5902    0.0000 </r>
       <r>   14.2394    0.0000 </r>
       <r>   16.9600    0.0000 </r>
       <r>   17.0609    0.0000 </r>
      </set>
      <set comment="kpoint 6">
       <r>   -2.1779    1.0000 </r>
       <r>    2.7947    1.0000 </r>
       <r>   11.2815    0.0000 </r>
       <r>   11.3297    0.0000 </r>
       <r>   14.1588    0.0000 </r>
       <r>   14.8747    0.0000 </r>
       <r>   15.7698    0.0000 </r>
       <r>   15.8529    0.0000 </r>
      </set>
      <set comment="kpoint 7">
       <r>   -1.4239    1.0000 </r>
       <r>    1.5640    1.0000 </r>
       <r>   11.9654    0.0000 </r>
       <r>   12.0165    0.0000 </r>
       <r>   14.6667    0.0000 </r>
       <r>   14.7375    0.0000 </r>
       <r>   14.8297    0.0000 </r>
       <r>   15.6359    0.0000 </r>
      </set>
      <set comment="kpoint 8">
       <r>   -0.5477    1.0000 </r>
       <r>    0.4490    1.0000 </r>
       <r>   12.7595    0.0000 </r>
       <r>   12.8149    0.0000 </r>
       <r>   13.6613    0.0000 </r>
       <r>   13.7230    0.0000 </r>
       <r>   15.5958    0.0000 </r>
       <r>   16.4484    0.0000 </r>
      </set>
      <set comment="kpoint 9">
       <r>   -3.9531    1.0000 </r>
       <r>    8.2096    1.0000 </r>
       <r>    9.6956    1.0000 </r>
       <r>   10.2664    0.9993 </r>
       <r>   12.7449    0.0000 </r>
       <r>   13.4768    0.0000 </r>
       <r>   14.3275    0.0000 </r>
       <r>   20.5334    0.0000 </r>
      </set>
      <set comment="kpoint 10">
       <r>   -3.8262    1.0000 </r>
       <r>    8.3268    1.0000 </r>
       <r>    8.8331    1.0000 </r>
       <r>    9.8111    1.0000 </r>
       <r>   12.8862    0.0000 </r>
       <r>   14.4128    0.0000 </r>
       <r>   15.1253    0.0000 </r>
       <r>   19.7706    0.0000 </r>
      </set>
      <set comment="kpoint 11">
       <r>   -3.5725    1.0000 </r>
       <r>    7.2397    1.0000 </r>
       <r>    8.5649    1.0000 </r>
       <r>   10.0411    1.0000 </r>
       <r>   13.1293    0.0000 </r>
       <r>   14.6664    0.0000 </r>
       <r>   17.0975    0.0000 </r>
       <r>   18.4556    0.0000 </r>
      </set>
      <set comment="kpoint 12">
       <r>   -3.1927    1.0000 </r>
       <r>    5.7010    1.0000 </r>
       <r>    8.9184    1.0000 </r>
       <r>   10.3859    1.0041 </r>
       <r>   13.4883    0.0000 </r>
       <r>   15.0289    0.0000 </r>
       <r>   17.1066    0.0000 </r>
       <r>   18.3607    0.0000 </r>
      </set>
      <set comment="kpoint 13">
       <r>   -2.6872    1.0000 </r>
       <r>    4.2542    1.0000 </r>
       <r>    9.3890    1.0000 </r>
       <r>   10.8450    0.0003 </r>
       <r>   13.9621    0.0000 </r>
       <r>   15.5093    0.0000 </r>
       <r>   15.8045    0.0000 </r>
       <r>   17.1110    0.0000 </r>
      </set>
      <set comment="kpoint 14">
       <r>   -2.0571    1.0000 </r>
       <r>    2.9126    1.0000 </r>
       <r>    9.9756    1.0000 </r>
       <r>   11.4177    0.0000 </r>
       <r>   14.5475    0.0000 </r>
       <r>   14.5793    0.0000 </r>
       <r>   15.9193    0.0000 </r>
       <r>   16.1077    0.0000 </r>
      </set>
      <set comment="kpoint 15">
       <r>   -1.3035    1.0000 </r>
       <r>    1.6826    1.0000 </r>
       <r>   10.6769   -0.0282 </r>
       <r>   12.1029    0.0000 </r>
       <r>   13.4467    0.0000 </r>
       <r>   14.8126    0.0000 </r>
       <r>   15.2388    0.0000 </r>
       <r>   16.8232    0.0000 </r>
      </set>
      <set comment="kpoint 16">
       <r>   -0.4278    1.0000 </r>
       <r>    0.5682    1.0000 </r>
       <r>   11.4910    0.0000 </r>
       <r>   12.4155    0.0000 </r>
       <r>   12.8990    0.0000 </r>
       <r>   13.8036    0.0000 </r>
       <r>   16.0284    0.0000 </r>
       <r>   16.9053    0.0000 </r>
      </set>
      <set comment="kpoint 17">
       <r>   -3.7095    1.0000 </r>
       <r>    6.6819    1.0000 </r>
       <r>    9.9165    1.0000 </r>
       <r>   10.4864    0.9891 </r>
       <r>   12.9979    0.0000 </r>
       <r>   13.7186    0.0000 </r>
       <r>   16.2170    0.0000 </r>
       <r>   19.2558    0.0000 </r>
      </set>
      <set comment="kpoint 18">
       <r>   -3.5827    1.0000 </r>
       <r>    6.8017    1.0000 </r>
       <r>    9.0585    1.0000 </r>
       <r>   10.0319    1.0000 </r>
       <r>   13.1408    0.0000 </r>
       <r>   15.3057    0.0000 </r>
       <r>   16.3513    0.0000 </r>
       <r>   18.5169    0.0000 </r>
      </set>
      <set comment="kpoint 19">
       <r>   -3.3294    1.0000 </r>
       <r>    7.0390    1.0000 </r>
       <r>    7.4729    1.0000 </r>
       <r>   10.2619    0.9994 </r>
       <r>   13.3851    0.0000 </r>
       <r>   16.5098    0.0000 </r>
       <r>   17.1309    0.0000 </r>
       <r>   17.3582    0.0000 </r>
      </set>
      <set comment="kpoint 20">
       <r>   -2.9499    1.0000 </r>
       <r>    5.9324    1.0000 </r>
       <r>    7.4020    1.0000 </r>
       <r>   10.6065    0.0142 </r>
       <r>   13.7456    0.0000 </r>
       <r>   15.7373    0.0000 </r>
       <r>   16.8836    0.0000 </r>
       <r>   18.4121    0.0000 </r>
      </set>
      <set comment="kpoint 21">
       <r>   -2.4451    1.0000 </r>
       <r>    4.4879    1.0000 </r>
       <r>    7.8792    1.0000 </r>
       <r>   11.0653    0.0000 </r>
       <r>   14.2221    0.0000 </r>
       <r>   14.4027    0.0000 </r>
       <r>   17.2744    0.0000 </r>
       <r>   17.3480    0.0000 </r>
      </set>
      <set comment="kpoint 22">
       <r>   -1.8157    1.0000 </r>
       <r>    3.1480    1.0000 </r>
       <r>    8.4744    1.0000 </r>
       <r>   11.6374    0.0000 </r>
       <r>   13.1526    0.0000 </r>
       <r>   14.8112    0.0000 </r>
       <r>   16.1153    0.0000 </r>
       <r>   17.9191    0.0000 </r>
      </set>
      <set comment="kpoint 23">
       <r>   -1.0630    1.0000 </r>
       <r>    1.9196    1.0000 </r>
       <r>    9.1861    1.0000 </r>
       <r>   11.9997    0.0000 </r>
       <r>   12.3217    0.0000 </r>
       <r>   15.0211    0.0000 </r>
       <r>   15.5081    0.0000 </r>
       <r>   18.1440    0.0000 </r>
      </set>
      <set comment="kpoint 24">
       <r>   -0.1884    1.0000 </r>
       <r>    0.8065    1.0000 </r>
       <r>   10.0126    1.0000 </r>
       <r>   10.9515    0.0000 </r>
       <r>   13.1163    0.0000 </r>
       <r>   14.0179    0.0000 </r>
       <r>   16.3054    0.0000 </r>
       <r>   17.1912    0.0000 </r>
      </set>
      <set comment="kpoint 25">
       <r>   -3.3445    1.0000 </r>
       <r>    5.2032    1.0000 </r>
       <r>   10.2477    0.9997 </r>
       <r>   10.8161    0.0011 </r>
       <r>   13.3466    0.0000 </r>
       <r>   14.0759    0.0000 </r>
       <r>   17.9697    0.0000 </r>
       <r>   18.2638    0.0000 </r>
      </set>
      <set comment="kpoint 26">
       <r>   -3.2180    1.0000 </r>
       <r>    5.3243    1.0000 </r>
       <r>    9.3972    1.0000 </r>
       <r>   10.3631    0.9964 </r>
       <r>   13.4932    0.0000 </r>
       <r>   15.6575    0.0000 </r>
       <r>   17.2309    0.0000 </r>
       <r>   18.0702    0.0000 </r>
      </set>
      <set comment="kpoint 27">
       <r>   -2.9651    1.0000 </r>
       <r>    5.5660    1.0000 </r>
       <r>    7.8148    1.0000 </r>
       <r>   10.5928    0.0852 </r>
       <r>   13.7373    0.0000 </r>
       <r>   15.7990    0.0000 </r>
       <r>   17.5766    0.0000 </r>
       <r>   18.1851    0.0000 </r>
      </set>
      <set comment="kpoint 28">
       <r>   -2.5863    1.0000 </r>
       <r>    5.9234    1.0000 </r>
       <r>    6.2872    1.0000 </r>
       <r>   10.9371    0.0000 </r>
       <r>   14.0969    0.0000 </r>
       <r>   14.3737    0.0000 </r>
       <r>   18.1377    0.0000 </r>
       <r>   18.8140    0.0000 </r>
      </set>
      <set comment="kpoint 29">
       <r>   -2.0824    1.0000 </r>
       <r>    4.8373    1.0000 </r>
       <r>    6.4139    1.0000 </r>
       <r>   11.3953    0.0000 </r>
       <r>   13.0155    0.0000 </r>
       <r>   14.5714    0.0000 </r>
       <r>   17.4446    0.0000 </r>
       <r>   19.3046    0.0000 </r>
      </set>
      <set comment="kpoint 30">
       <r>   -1.4542    1.0000 </r>
       <r>    3.5006    1.0000 </r>
       <r>    7.0147    1.0000 </r>
       <r>   11.7470    0.0000 </r>
       <r>   11.9666    0.0000 </r>
       <r>   15.1578    0.0000 </r>
       <r>   16.3912    0.0000 </r>
       <r>   19.2091    0.0000 </r>
      </set>
      <set comment="kpoint 31">
       <r>   -0.7028    1.0000 </r>
       <r>    2.2745    1.0000 </r>
       <r>    7.7337    1.0000 </r>
       <r>   10.5792    0.1843 </r>
       <r>   12.6493    0.0000 </r>
       <r>   15.3281    0.0000 </r>
       <r>   15.8507    0.0000 </r>
       <r>   18.4231    0.0000 </r>
      </set>
      <set comment="kpoint 32">
       <r>    0.1703    1.0000 </r>
       <r>    1.1635    1.0000 </r>
       <r>    8.5691    1.0000 </r>
       <r>    9.5185    1.0000 </r>
       <r>   13.4409    0.0000 </r>
       <r>   14.3369    0.0000 </r>
       <r>   16.6412    0.0000 </r>
       <r>   17.5123    0.0000 </r>
      </set>
      <set comment="kpoint 33">
       <r>   -2.8589    1.0000 </r>
       <r>    3.8124    1.0000 </r>
       <r>   10.6887   -0.0174 </r>
       <r>   11.2550    0.0000 </r>
       <r>   13.8018    0.0000 </r>
       <r>   14.5511    0.0000 </r>
       <r>   16.7346    0.0000 </r>
       <r>   17.2554    0.0000 </r>
      </set>
      <set comment="kpoint 34">
       <r>   -2.7327    1.0000 </r>
       <r>    3.9345    1.0000 </r>
       <r>    9.8478    1.0000 </r>
       <r>   10.8041    0.0017 </r>
       <r>   13.9545    0.0000 </r>
       <r>   15.9873    0.0000 </r>
       <r>   16.1123    0.0000 </r>
       <r>   16.8445    0.0000 </r>
      </set>
      <set comment="kpoint 35">
       <r>   -2.4804    1.0000 </r>
       <r>    4.1784    1.0000 </r>
       <r>    8.2722    1.0000 </r>
       <r>   11.0335    0.0000 </r>
       <r>   14.1982    0.0000 </r>
       <r>   14.5218    0.0000 </r>
       <r>   17.0284    0.0000 </r>
       <r>   18.0395    0.0000 </r>
      </set>
      <set comment="kpoint 36">
       <r>   -2.1025    1.0000 </r>
       <r>    4.5433    1.0000 </r>
       <r>    6.7450    1.0000 </r>
       <r>   11.3772    0.0000 </r>
       <r>   13.0729    0.0000 </r>
       <r>   14.5552    0.0000 </r>
       <r>   17.2574    0.0000 </r>
       <r>   19.5434    0.0000 </r>
      </set>
      <set comment="kpoint 37">
       <r>   -1.5998    1.0000 </r>
       <r>    5.0188    1.0000 </r>
       <r>    5.3179    1.0000 </r>
       <r>   11.6970    0.0000 </r>
       <r>   11.8345    0.0000 </r>
       <r>   15.0257    0.0000 </r>
       <r>   17.3084    0.0000 </r>
       <r>   18.8199    0.0000 </r>
      </set>
      <set comment="kpoint 38">
       <r>   -0.9730    1.0000 </r>
       <r>    3.9688    1.0000 </r>
       <r>    5.6403    1.0000 </r>
       <r>   10.4143    1.0258 </r>
       <r>   12.4042    0.0000 </r>
       <r>   15.6059    0.0000 </r>
       <r>   16.6834    0.0000 </r>
       <r>   18.7155    0.0000 </r>
      </set>
      <set comment="kpoint 39">
       <r>   -0.2234    1.0000 </r>
       <r>    2.7466    1.0000 </r>
       <r>    6.3644    1.0000 </r>
       <r>    9.2348    1.0000 </r>
       <r>   13.0840    0.0000 </r>
       <r>   15.7176    0.0000 </r>
       <r>   16.2886    0.0000 </r>
       <r>   18.6096    0.0000 </r>
      </set>
      <set comment="kpoint 40">
       <r>    0.6476    1.0000 </r>
       <r>    1.6384    1.0000 </r>
       <r>    7.2066    1.0000 </r>
       <r>    8.1643    1.0000 </r>
       <r>   13.8703    0.0000 </r>
       <r>   14.7550    0.0000 </r>
       <r>   17.0603    0.0000 </r>
       <r>   17.8857    0.0000 </r>
      </set>
      <set comment="kpoint 41">
       <r>   -2.2536    1.0000 </r>
       <r>    2.5227    1.0000 </r>
       <r>   11.2390    0.0000 </r>
       <r>   11.8024    0.0000 </r>
       <r>   14.3618    0.0000 </r>
       <r>   15.1447    0.0000 </r>
       <r>   15.5755    0.0000 </r>
       <r>   16.1084    0.0000 </r>
      </set>
      <set comment="kpoint 42">
       <r>   -2.1277    1.0000 </r>
       <r>    2.6457    1.0000 </r>
       <r>   10.4095    1.0213 </r>
       <r>   11.3543    0.0000 </r>
       <r>   14.5240    0.0000 </r>
       <r>   14.8159    0.0000 </r>
       <r>   15.6886    0.0000 </r>
       <r>   16.6760    0.0000 </r>
      </set>
      <set comment="kpoint 43">
       <r>   -1.8761    1.0000 </r>
       <r>    2.8913    1.0000 </r>
       <r>    8.8425    1.0000 </r>
       <r>   11.5831    0.0000 </r>
       <r>   13.3248    0.0000 </r>
       <r>   14.7670    0.0000 </r>
       <r>   15.8969    0.0000 </r>
       <r>   18.5828    0.0000 </r>
      </set>
      <set comment="kpoint 44">
       <r>   -1.4994    1.0000 </r>
       <r>    3.2591    1.0000 </r>
       <r>    7.3212    1.0000 </r>
       <r>   11.8575    0.0000 </r>
       <r>   11.9260    0.0000 </r>
       <r>   15.1204    0.0000 </r>
       <r>   16.1964    0.0000 </r>
       <r>   19.1359    0.0000 </r>
      </set>
      <set comment="kpoint 45">
       <r>   -0.9981    1.0000 </r>
       <r>    3.7478    1.0000 </r>
       <r>    5.8891    1.0000 </r>
       <r>   10.4673    1.0406 </r>
       <r>   12.3817    0.0000 </r>
       <r>   15.5842    0.0000 </r>
       <r>   16.5392    0.0000 </r>
       <r>   18.8188    0.0000 </r>
      </set>
      <set comment="kpoint 46">
       <r>   -0.3732    1.0000 </r>
       <r>    4.3373    1.0000 </r>
       <r>    4.5803    1.0000 </r>
       <r>    9.1732    1.0000 </r>
       <r>   12.9486    0.0000 </r>
       <r>   16.1537    0.0000 </r>
       <r>   16.6873    0.0000 </r>
       <r>   18.1663    0.0000 </r>
      </set>
      <set comment="kpoint 47">
       <r>    0.3742    1.0000 </r>
       <r>    3.3340    1.0000 </r>
       <r>    5.0943    1.0000 </r>
       <r>    7.9842    1.0000 </r>
       <r>   13.6233    0.0000 </r>
       <r>   16.1307    0.0000 </r>
       <r>   16.8170    0.0000 </r>
       <r>   18.2030    0.0000 </r>
      </set>
      <set comment="kpoint 48">
       <r>    1.2426    1.0000 </r>
       <r>    2.2302    1.0000 </r>
       <r>    5.9413    1.0000 </r>
       <r>    6.9057    1.0000 </r>
       <r>   14.3989    0.0000 </r>
       <r>   15.2571    0.0000 </r>
       <r>   17.5437    0.0000 </r>
       <r>   18.1913    0.0000 </r>
      </set>
      <set comment="kpoint 49">
       <r>   -1.5294    1.0000 </r>
       <r>    1.3405    1.0000 </r>
       <r>   11.8975    0.0000 </r>
       <r>   12.4573    0.0000 </r>
       <r>   14.5060    0.0000 </r>
       <r>   15.0214    0.0000 </r>
       <r>   15.0482    0.0000 </r>
       <r>   15.8565    0.0000 </r>
      </set>
      <set comment="kpoint 50">
       <r>   -1.4040    1.0000 </r>
       <r>    1.4642    1.0000 </r>
       <r>   11.0810    0.0000 </r>
       <r>   12.0127    0.0000 </r>
       <r>   13.7324    0.0000 </r>
       <r>   14.6203    0.0000 </r>
       <r>   15.1979    0.0000 </r>
       <r>   17.3476    0.0000 </r>
      </set>
      <set comment="kpoint 51">
       <r>   -1.1534    1.0000 </r>
       <r>    1.7113    1.0000 </r>
       <r>    9.5245    1.0000 </r>
       <r>   12.2204    0.0000 </r>
       <r>   12.2407    0.0000 </r>
       <r>   14.8389    0.0000 </r>
       <r>   15.4403    0.0000 </r>
       <r>   18.0039    0.0000 </r>
      </set>
      <set comment="kpoint 52">
       <r>   -0.7779    1.0000 </r>
       <r>    2.0814    1.0000 </r>
       <r>    8.0105    1.0000 </r>
       <r>   10.7381    0.0045 </r>
       <r>   12.5820    0.0000 </r>
       <r>   15.1624    0.0000 </r>
       <r>   15.7880    0.0000 </r>
       <r>   18.2905    0.0000 </r>
      </set>
      <set comment="kpoint 53">
       <r>   -0.2784    1.0000 </r>
       <r>    2.5737    1.0000 </r>
       <r>    6.5838    1.0000 </r>
       <r>    9.3364    1.0000 </r>
       <r>   13.0351    0.0000 </r>
       <r>   15.5764    0.0000 </r>
       <r>   16.2415    0.0000 </r>
       <r>   18.5486    0.0000 </r>
      </set>
      <set comment="kpoint 54">
       <r>    0.3443    1.0000 </r>
       <r>    3.1865    1.0000 </r>
       <r>    5.2604    1.0000 </r>
       <r>    8.0327    1.0000 </r>
       <r>   13.5968    0.0000 </r>
       <r>   16.0325    0.0000 </r>
       <r>   16.7916    0.0000 </r>
       <r>   18.2768    0.0000 </r>
      </set>
      <set comment="kpoint 55">
       <r>    1.0890    1.0000 </r>
       <r>    3.8832    1.0000 </r>
       <r>    4.0831    1.0000 </r>
       <r>    6.8358    1.0000 </r>
       <r>   14.2613    0.0000 </r>
       <r>   16.2738    0.0000 </r>
       <r>   17.4115    0.0000 </r>
       <r>   17.7204    0.0000 </r>
      </set>
      <set comment="kpoint 56">
       <r>    1.9541    1.0000 </r>
       <r>    2.9369    1.0000 </r>
       <r>    4.7817    1.0000 </r>
       <r>    5.7507    1.0000 </r>
       <r>   15.0119    0.0000 </r>
       <r>   15.7881    0.0000 </r>
       <r>   17.8989    0.0000 </r>
       <r>   17.9718    0.0000 </r>
      </set>
      <set comment="kpoint 57">
       <r>   -0.6879    1.0000 </r>
       <r>    0.2694    1.0000 </r>
       <r>   12.6631    0.0000 </r>
       <r>   13.2183    0.0000 </r>
       <r>   13.5336    0.0000 </r>
       <r>   14.0831    0.0000 </r>
       <r>   15.7732    0.0000 </r>
       <r>   16.6075    0.0000 </r>
      </set>
      <set comment="kpoint 58">
       <r>   -0.5630    1.0000 </r>
       <r>    0.3937    1.0000 </r>
       <r>   11.8604    0.0000 </r>
       <r>   12.7455    0.0000 </r>
       <r>   12.7781    0.0000 </r>
       <r>   13.6484    0.0000 </r>
       <r>   15.9699    0.0000 </r>
       <r>   16.8311    0.0000 </r>
      </set>
      <set comment="kpoint 59">
       <r>   -0.3134    1.0000 </r>
       <r>    0.6422    1.0000 </r>
       <r>   10.3164    0.9965 </r>
       <r>   11.2161    0.0000 </r>
       <r>   13.0046    0.0000 </r>
       <r>   13.8721    0.0000 </r>
       <r>   16.2119    0.0000 </r>
       <r>   17.0720    0.0000 </r>
      </set>
      <set comment="kpoint 60">
       <r>    0.0605    1.0000 </r>
       <r>    1.0143    1.0000 </r>
       <r>    8.8112    1.0000 </r>
       <r>    9.7214    1.0000 </r>
       <r>   13.3432    0.0000 </r>
       <r>   14.2057    0.0000 </r>
       <r>   16.5508    0.0000 </r>
       <r>   17.3950    0.0000 </r>
      </set>
      <set comment="kpoint 61">
       <r>    0.5580    1.0000 </r>
       <r>    1.5094    1.0000 </r>
       <r>    7.3914    1.0000 </r>
       <r>    8.3098    1.0000 </r>
       <r>   13.7911    0.0000 </r>
       <r>   14.6436    0.0000 </r>
       <r>   16.9858    0.0000 </r>
       <r>   17.7896    0.0000 </r>
      </set>
      <set comment="kpoint 62">
       <r>    1.1780    1.0000 </r>
       <r>    2.1263    1.0000 </r>
       <r>    6.0731    1.0000 </r>
       <r>    6.9982    1.0000 </r>
       <r>   14.3429    0.0000 </r>
       <r>   15.1716    0.0000 </r>
       <r>   17.4939    0.0000 </r>
       <r>   18.1518    0.0000 </r>
      </set>
      <set comment="kpoint 63">
       <r>    1.9194    1.0000 </r>
       <r>    2.8631    1.0000 </r>
       <r>    4.8648    1.0000 </r>
       <r>    5.7947    1.0000 </r>
       <r>   14.9833    0.0000 </r>
       <r>   15.7382    0.0000 </r>
       <r>   17.9375    0.0000 </r>
       <r>   17.9582    0.0000 </r>
      </set>
      <set comment="kpoint 64">
       <r>    2.7797    1.0000 </r>
       <r>    3.6568    1.0000 </r>
       <r>    3.8324    1.0000 </r>
       <r>    4.7049    1.0000 </r>
       <r>   15.6569    0.0000 </r>
       <r>   16.0673    0.0000 </r>
       <r>   17.4952    0.0000 </r>
       <r>   17.8100    0.0000 </r>
      </set>
      <set comment="kpoint 65">
       <r>   -3.8313    1.0000 </r>
       <r>    8.2577    1.0000 </r>
       <r>    8.3928    1.0000 </r>
       <r>   10.3766    0.9999 </r>
       <r>   13.5130    0.0000 </r>
       <r>   14.1910    0.0000 </r>
       <r>   14.6393    0.0000 </r>
       <r>   19.4128    0.0000 </r>
      </set>
      <set comment="kpoint 66">
       <r>   -3.7044    1.0000 </r>
       <r>    8.3743    1.0000 </r>
       <r>    8.5110    1.0000 </r>
       <r>    8.9475    1.0000 </r>
       <r>   14.1960    0.0000 </r>
       <r>   14.7632    0.0000 </r>
       <r>   15.2517    0.0000 </r>
       <r>   19.2284    0.0000 </r>
      </set>
      <set comment="kpoint 67">
       <r>   -3.4509    1.0000 </r>
       <r>    7.3542    1.0000 </r>
       <r>    8.6139    1.0000 </r>
       <r>    8.7471    1.0000 </r>
       <r>   14.4441    0.0000 </r>
       <r>   15.0108    0.0000 </r>
       <r>   17.2139    0.0000 </r>
       <r>   18.2732    0.0000 </r>
      </set>
      <set comment="kpoint 68">
       <r>   -3.0713    1.0000 </r>
       <r>    5.8170    1.0000 </r>
       <r>    8.9666    1.0000 </r>
       <r>    9.1012    1.0000 </r>
       <r>   14.7840    0.0000 </r>
       <r>   15.3819    0.0000 </r>
       <r>   17.0208    0.0000 </r>
       <r>   17.4233    0.0000 </r>
      </set>
      <set comment="kpoint 69">
       <r>   -2.5661    1.0000 </r>
       <r>    4.3711    1.0000 </r>
       <r>    9.4361    1.0000 </r>
       <r>    9.5727    1.0000 </r>
       <r>   15.2280    0.0000 </r>
       <r>   15.7658    0.0000 </r>
       <r>   15.8762    0.0000 </r>
       <r>   16.0769    0.0000 </r>
      </set>
      <set comment="kpoint 70">
       <r>   -1.9364    1.0000 </r>
       <r>    3.0304    1.0000 </r>
       <r>   10.0204    1.0000 </r>
       <r>   10.1615    1.0000 </r>
       <r>   14.5701    0.0000 </r>
       <r>   14.8216    0.0000 </r>
       <r>   15.7735    0.0000 </r>
       <r>   16.4930    0.0000 </r>
      </set>
      <set comment="kpoint 71">
       <r>   -1.1832    1.0000 </r>
       <r>    1.8011    1.0000 </r>
       <r>   10.7177    0.0003 </r>
       <r>   10.8667    0.0001 </r>
       <r>   13.4577    0.0000 </r>
       <r>   13.6679    0.0000 </r>
       <r>   16.4140    0.0000 </r>
       <r>   17.2313    0.0000 </r>
      </set>
      <set comment="kpoint 72">
       <r>   -0.3081    1.0000 </r>
       <r>    0.6874    1.0000 </r>
       <r>   11.5255    0.0000 </r>
       <r>   11.6874    0.0000 </r>
       <r>   12.4403    0.0000 </r>
       <r>   12.6219    0.0000 </r>
       <r>   17.1391    0.0000 </r>
       <r>   17.9320    0.0000 </r>
      </set>
      <set comment="kpoint 73">
       <r>   -3.5878    1.0000 </r>
       <r>    6.7953    1.0000 </r>
       <r>    8.5559    1.0000 </r>
       <r>   10.5965    0.0630 </r>
       <r>   13.7652    0.0000 </r>
       <r>   14.6035    0.0000 </r>
       <r>   16.3488    0.0000 </r>
       <r>   18.1000    0.0000 </r>
      </set>
      <set comment="kpoint 74">
       <r>   -3.4611    1.0000 </r>
       <r>    6.9150    1.0000 </r>
       <r>    8.6731    1.0000 </r>
       <r>    9.1730    1.0000 </r>
       <r>   14.6369    0.0000 </r>
       <r>   15.4555    0.0000 </r>
       <r>   16.4816    0.0000 </r>
       <r>   18.0958    0.0000 </r>
      </set>
      <set comment="kpoint 75">
       <r>   -3.2079    1.0000 </r>
       <r>    7.1522    1.0000 </r>
       <r>    7.5874    1.0000 </r>
       <r>    8.9107    1.0000 </r>
       <r>   14.8941    0.0000 </r>
       <r>   16.6498    0.0000 </r>
       <r>   17.1812    0.0000 </r>
       <r>   17.4738    0.0000 </r>
      </set>
      <set comment="kpoint 76">
       <r>   -2.8287    1.0000 </r>
       <r>    6.0483    1.0000 </r>
       <r>    7.5151    1.0000 </r>
       <r>    9.2639    1.0000 </r>
       <r>   15.2425    0.0000 </r>
       <r>   15.8258    0.0000 </r>
       <r>   17.0234    0.0000 </r>
       <r>   17.4121    0.0000 </r>
      </set>
      <set comment="kpoint 77">
       <r>   -2.3241    1.0000 </r>
       <r>    4.6048    1.0000 </r>
       <r>    7.9920    1.0000 </r>
       <r>    9.7341    1.0000 </r>
       <r>   14.5028    0.0000 </r>
       <r>   15.6977    0.0000 </r>
       <r>   16.1417    0.0000 </r>
       <r>   17.4908    0.0000 </r>
      </set>
      <set comment="kpoint 78">
       <r>   -1.6951    1.0000 </r>
       <r>    3.2657    1.0000 </r>
       <r>    8.5869    1.0000 </r>
       <r>   10.3202    0.9963 </r>
       <r>   13.2580    0.0000 </r>
       <r>   14.9217    0.0000 </r>
       <r>   16.2563    0.0000 </r>
       <r>   18.0667    0.0000 </r>
      </set>
      <set comment="kpoint 79">
       <r>   -0.9429    1.0000 </r>
       <r>    2.0380    1.0000 </r>
       <r>    9.2981    1.0000 </r>
       <r>   11.0210    0.0000 </r>
       <r>   12.1081    0.0000 </r>
       <r>   13.7901    0.0000 </r>
       <r>   16.9091    0.0000 </r>
       <r>   18.7483    0.0000 </r>
      </set>
      <set comment="kpoint 80">
       <r>   -0.0687    1.0000 </r>
       <r>    0.9256    1.0000 </r>
       <r>   10.1239    1.0000 </r>
       <r>   11.0616    0.0000 </r>
       <r>   11.8349    0.0000 </r>
       <r>   12.7591    0.0000 </r>
       <r>   17.6380    0.0000 </r>
       <r>   18.4001    0.0000 </r>
      </set>
      <set comment="kpoint 81">
       <r>   -3.2231    1.0000 </r>
       <r>    5.3188    1.0000 </r>
       <r>    8.8945    1.0000 </r>
       <r>   10.9261    0.0000 </r>
       <r>   14.1112    0.0000 </r>
       <r>   14.9631    0.0000 </r>
       <r>   16.7842    0.0000 </r>
       <r>   18.3815    0.0000 </r>
      </set>
      <set comment="kpoint 82">
       <r>   -3.0966    1.0000 </r>
       <r>    5.4399    1.0000 </r>
       <r>    9.0114    1.0000 </r>
       <r>    9.5117    1.0000 </r>
       <r>   14.9877    0.0000 </r>
       <r>   15.8066    0.0000 </r>
       <r>   16.8430    0.0000 </r>
       <r>   17.4003    0.0000 </r>
      </set>
      <set comment="kpoint 83">
       <r>   -2.8438    1.0000 </r>
       <r>    5.6815    1.0000 </r>
       <r>    7.9290    1.0000 </r>
       <r>    9.2488    1.0000 </r>
       <r>   15.2479    0.0000 </r>
       <r>   15.8866    0.0000 </r>
       <r>   17.1156    0.0000 </r>
       <r>   17.6966    0.0000 </r>
      </set>
      <set comment="kpoint 84">
       <r>   -2.4653    1.0000 </r>
       <r>    6.0389    1.0000 </r>
       <r>    6.4028    1.0000 </r>
       <r>    9.6015    1.0000 </r>
       <r>   14.4775    0.0000 </r>
       <r>   15.5961    0.0000 </r>
       <r>   17.2300    0.0000 </r>
       <r>   18.0703    0.0000 </r>
      </set>
      <set comment="kpoint 85">
       <r>   -1.9616    1.0000 </r>
       <r>    4.9541    1.0000 </r>
       <r>    6.5290    1.0000 </r>
       <r>   10.0709    1.0000 </r>
       <r>   13.1241    0.0000 </r>
       <r>   16.0501    0.0000 </r>
       <r>   16.4015    0.0000 </r>
       <r>   18.0008    0.0000 </r>
      </set>
      <set comment="kpoint 86">
       <r>   -1.3338    1.0000 </r>
       <r>    3.6182    1.0000 </r>
       <r>    7.1295    1.0000 </r>
       <r>   10.6559   -0.0467 </r>
       <r>   11.8579    0.0000 </r>
       <r>   15.2289    0.0000 </r>
       <r>   16.6049    0.0000 </r>
       <r>   18.3971    0.0000 </r>
      </set>
      <set comment="kpoint 87">
       <r>   -0.5828    1.0000 </r>
       <r>    2.3928    1.0000 </r>
       <r>    7.8482    1.0000 </r>
       <r>   10.6916   -0.0150 </r>
       <r>   11.3552    0.0000 </r>
       <r>   14.1116    0.0000 </r>
       <r>   17.2467    0.0000 </r>
       <r>   18.7216    0.0000 </r>
      </set>
      <set comment="kpoint 88">
       <r>    0.2898    1.0000 </r>
       <r>    1.2824    1.0000 </r>
       <r>    8.6830    1.0000 </r>
       <r>    9.6318    1.0000 </r>
       <r>   12.1667    0.0000 </r>
       <r>   13.0872    0.0000 </r>
       <r>   17.9387    0.0000 </r>
       <r>   18.5538    0.0000 </r>
      </set>
      <set comment="kpoint 89">
       <r>   -2.7378    1.0000 </r>
       <r>    3.9292    1.0000 </r>
       <r>    9.3462    1.0000 </r>
       <r>   11.3649    0.0000 </r>
       <r>   14.5643    0.0000 </r>
       <r>   15.4281    0.0000 </r>
       <r>   15.5224    0.0000 </r>
       <r>   17.3489    0.0000 </r>
      </set>
      <set comment="kpoint 90">
       <r>   -2.6116    1.0000 </r>
       <r>    4.0513    1.0000 </r>
       <r>    9.4628    1.0000 </r>
       <r>    9.9623    1.0000 </r>
       <r>   15.4298    0.0000 </r>
       <r>   15.6092    0.0000 </r>
       <r>   16.1299    0.0000 </r>
       <r>   16.2676    0.0000 </r>
      </set>
      <set comment="kpoint 91">
       <r>   -2.3594    1.0000 </r>
       <r>    4.2951    1.0000 </r>
       <r>    8.3862    1.0000 </r>
       <r>    9.7000    1.0000 </r>
       <r>   14.6225    0.0000 </r>
       <r>   15.6942    0.0000 </r>
       <r>   15.8662    0.0000 </r>
       <r>   18.1580    0.0000 </r>
      </set>
      <set comment="kpoint 92">
       <r>   -1.9818    1.0000 </r>
       <r>    4.6599    1.0000 </r>
       <r>    6.8604    1.0000 </r>
       <r>   10.0519    1.0000 </r>
       <r>   13.1819    0.0000 </r>
       <r>   16.0392    0.0000 </r>
       <r>   16.1600    0.0000 </r>
       <r>   18.2613    0.0000 </r>
      </set>
      <set comment="kpoint 93">
       <r>   -1.4793    1.0000 </r>
       <r>    5.1356    1.0000 </r>
       <r>    5.4339    1.0000 </r>
       <r>   10.5202    0.7666 </r>
       <r>   11.8085    0.0000 </r>
       <r>   16.3838    0.0000 </r>
       <r>   16.4853    0.0000 </r>
       <r>   17.2074    0.0000 </r>
      </set>
      <set comment="kpoint 94">
       <r>   -0.8529    1.0000 </r>
       <r>    4.0862    1.0000 </r>
       <r>    5.7563    1.0000 </r>
       <r>   10.5273    0.7011 </r>
       <r>   11.1038    0.0000 </r>
       <r>   15.6122    0.0000 </r>
       <r>   17.0232    0.0000 </r>
       <r>   17.2925    0.0000 </r>
      </set>
      <set comment="kpoint 95">
       <r>   -0.1037    1.0000 </r>
       <r>    2.8647    1.0000 </r>
       <r>    6.4801    1.0000 </r>
       <r>    9.3488    1.0000 </r>
       <r>   11.8009    0.0000 </r>
       <r>   14.5356    0.0000 </r>
       <r>   17.6216    0.0000 </r>
       <r>   17.8154    0.0000 </r>
      </set>
      <set comment="kpoint 96">
       <r>    0.7669    1.0000 </r>
       <r>    1.7571    1.0000 </r>
       <r>    7.3219    1.0000 </r>
       <r>    8.2790    1.0000 </r>
       <r>   12.6090    0.0000 </r>
       <r>   13.5237    0.0000 </r>
       <r>   18.1640    0.0000 </r>
       <r>   18.2587    0.0000 </r>
      </set>
      <set comment="kpoint 97">
       <r>   -2.1327    1.0000 </r>
       <r>    2.6405    1.0000 </r>
       <r>    9.9096    1.0000 </r>
       <r>   11.9121    0.0000 </r>
       <r>   14.3396    0.0000 </r>
       <r>   15.1220    0.0000 </r>
       <r>   16.0057    0.0000 </r>
       <r>   16.2106    0.0000 </r>
      </set>
      <set comment="kpoint 98">
       <r>   -2.0069    1.0000 </r>
       <r>    2.7634    1.0000 </r>
       <r>   10.0257    1.0000 </r>
       <r>   10.5242    0.7306 </r>
       <r>   14.4399    0.0000 </r>
       <r>   14.9450    0.0000 </r>
       <r>   15.9693    0.0000 </r>
       <r>   16.8419    0.0000 </r>
      </set>
      <set comment="kpoint 99">
       <r>   -1.7555    1.0000 </r>
       <r>    3.0090    1.0000 </r>
       <r>    8.9562    1.0000 </r>
       <r>   10.2627    0.9994 </r>
       <r>   13.4313    0.0000 </r>
       <r>   14.6867    0.0000 </r>
       <r>   16.2395    0.0000 </r>
       <r>   18.7004    0.0000 </r>
      </set>
      <set comment="kpoint 100">
       <r>   -1.3790    1.0000 </r>
       <r>    3.3766    1.0000 </r>
       <r>    7.4363    1.0000 </r>
       <r>   10.6135   -0.0114 </r>
       <r>   11.9688    0.0000 </r>
       <r>   15.0122    0.0000 </r>
       <r>   16.5777    0.0000 </r>
       <r>   18.6304    0.0000 </r>
      </set>
      <set comment="kpoint 101">
       <r>   -0.8780    1.0000 </r>
       <r>    3.8652    1.0000 </r>
       <r>    6.0052    1.0000 </r>
       <r>   10.5804    0.1747 </r>
       <r>   11.0804    0.0000 </r>
       <r>   15.4285    0.0000 </r>
       <r>   17.0065    0.0000 </r>
       <r>   17.4909    0.0000 </r>
      </set>
      <set comment="kpoint 102">
       <r>   -0.2534    1.0000 </r>
       <r>    4.4552    1.0000 </r>
       <r>    4.6964    1.0000 </r>
       <r>    9.2873    1.0000 </r>
       <r>   11.6618    0.0000 </r>
[...]
       <r>    3.9822    1.0000 </r>
       <r>    5.8670    1.0000 </r>
       <r>    6.7901    1.0000 </r>
       <r>    9.7979    1.0000 </r>
       <r>   10.6989   -0.0095 </r>
       <r>   12.5242    0.0000 </r>
       <r>   13.4067    0.0000 </r>
      </set>
      <set comment="kpoint 278">
       <r>    3.6598    1.0000 </r>
       <r>    4.5936    1.0000 </r>
       <r>    6.4711    1.0000 </r>
       <r>    7.3917    1.0000 </r>
       <r>    8.4984    1.0000 </r>
       <r>    9.4086    1.0000 </r>
       <r>   11.2414    0.0000 </r>
       <r>   12.1358    0.0000 </r>
      </set>
      <set comment="kpoint 279">
       <r>    4.3936    1.0000 </r>
       <r>    5.3239    1.0000 </r>
       <r>    7.1773    1.0000 </r>
       <r>    7.3214    1.0000 </r>
       <r>    8.0917    1.0000 </r>
       <r>    8.2410    1.0000 </r>
       <r>   10.0638    1.0000 </r>
       <r>   10.9662    0.0000 </r>
      </set>
      <set comment="kpoint 280">
       <r>    5.2454    1.0000 </r>
       <r>    6.1327    1.0000 </r>
       <r>    6.2582    1.0000 </r>
       <r>    7.1409    1.0000 </r>
       <r>    8.0367    1.0000 </r>
       <r>    8.9172    1.0000 </r>
       <r>    9.0290    1.0000 </r>
       <r>    9.9045    1.0000 </r>
      </set>
      <set comment="kpoint 281">
       <r>    2.6348    1.0000 </r>
       <r>    3.4408    1.0000 </r>
       <r>    3.7359    1.0000 </r>
       <r>    4.5376    1.0000 </r>
       <r>   16.0487    0.0000 </r>
       <r>   16.4294    0.0000 </r>
       <r>   17.9478    0.0000 </r>
       <r>   18.2474    0.0000 </r>
      </set>
      <set comment="kpoint 282">
       <r>    2.7582    1.0000 </r>
       <r>    3.5656    1.0000 </r>
       <r>    3.8563    1.0000 </r>
       <r>    4.6593    1.0000 </r>
       <r>   14.8771    0.0000 </r>
       <r>   15.4136    0.0000 </r>
       <r>   16.2582    0.0000 </r>
       <r>   16.7715    0.0000 </r>
      </set>
      <set comment="kpoint 283">
       <r>    3.0048    1.0000 </r>
       <r>    3.8146    1.0000 </r>
       <r>    4.0971    1.0000 </r>
       <r>    4.9026    1.0000 </r>
       <r>   13.4241    0.0000 </r>
       <r>   14.0707    0.0000 </r>
       <r>   14.6226    0.0000 </r>
       <r>   15.2581    0.0000 </r>
      </set>
      <set comment="kpoint 284">
       <r>    3.3741    1.0000 </r>
       <r>    4.1870    1.0000 </r>
       <r>    4.4584    1.0000 </r>
       <r>    5.2670    1.0000 </r>
       <r>   11.9709    0.0000 </r>
       <r>   12.6866    0.0000 </r>
       <r>   13.0864    0.0000 </r>
       <r>   13.7945    0.0000 </r>
      </set>
      <set comment="kpoint 285">
       <r>    3.8651    1.0000 </r>
       <r>    4.6816    1.0000 </r>
       <r>    4.9399    1.0000 </r>
       <r>    5.7520    1.0000 </r>
       <r>   10.5865    0.1278 </r>
       <r>   11.3471    0.0000 </r>
       <r>   11.6589    0.0000 </r>
       <r>   12.4136    0.0000 </r>
      </set>
      <set comment="kpoint 286">
       <r>    4.4770    1.0000 </r>
       <r>    5.2963    1.0000 </r>
       <r>    5.5418    1.0000 </r>
       <r>    6.3567    1.0000 </r>
       <r>    9.2948    1.0000 </r>
       <r>   10.0848    1.0000 </r>
       <r>   10.3449    0.9951 </r>
       <r>   11.1297    0.0000 </r>
      </set>
      <set comment="kpoint 287">
       <r>    5.2083    1.0000 </r>
       <r>    6.0282    1.0000 </r>
       <r>    6.2637    1.0000 </r>
       <r>    7.0794    1.0000 </r>
       <r>    8.1075    1.0000 </r>
       <r>    8.9161    1.0000 </r>
       <r>    9.1471    1.0000 </r>
       <r>    9.9508    1.0000 </r>
      </set>
      <set comment="kpoint 288">
       <r>    6.0565    1.0000 </r>
       <r>    6.8465    1.0000 </r>
       <r>    7.0583    1.0000 </r>
       <r>    7.1057    1.0000 </r>
       <r>    7.8068    1.0000 </r>
       <r>    7.9627    1.0000 </r>
       <r>    8.0671    1.0000 </r>
       <r>    8.8822    1.0000 </r>
      </set>
     </set>
    </set>
   </array>
  </eigenvalues>
  <separator name="orbital magnetization" >
   <v name="MAGDIPOLOUT">      0.00000000      0.00000000      0.00000000</v>
  </separator>
  <dos>
   <i name="efermi">     10.54684960 </i>
   <total>
    <array>
     <dimension dim="1">gridpoints</dimension>
     <dimension dim="2">spin</dimension>
     <field>energy</field>
     <field>total</field>
     <field>integrated</field>
     <set>
      <set comment="spin 1">
       <r>    -5.3604     0.0000     0.0000 </r>
       <r>    -5.2661     0.0000     0.0000 </r>
       <r>    -5.1718     0.0000     0.0000 </r>
       <r>    -5.0776     0.0000     0.0000 </r>
       <r>    -4.9833     0.0000     0.0000 </r>
       <r>    -4.8891     0.0000     0.0000 </r>
       <r>    -4.7948     0.0000     0.0000 </r>
       <r>    -4.7006     0.0000     0.0000 </r>
       <r>    -4.6063     0.0000     0.0000 </r>
       <r>    -4.5121     0.0000     0.0000 </r>
       <r>    -4.4178     0.0000     0.0000 </r>
       <r>    -4.3235     0.0001     0.0000 </r>
       <r>    -4.2293    -0.0003     0.0000 </r>
       <r>    -4.1350     0.0012     0.0001 </r>
       <r>    -4.0408     0.0279     0.0027 </r>
       <r>    -3.9465     0.0780     0.0101 </r>
       <r>    -3.8523     0.0948     0.0190 </r>
       <r>    -3.7580     0.0983     0.0283 </r>
       <r>    -3.6638     0.1257     0.0401 </r>
       <r>    -3.5695     0.1832     0.0574 </r>
       <r>    -3.4752     0.1425     0.0708 </r>
       <r>    -3.3810     0.1030     0.0805 </r>
       <r>    -3.2867     0.1929     0.0987 </r>
       <r>    -3.1925     0.2867     0.1257 </r>
       <r>    -3.0982     0.1742     0.1422 </r>
       <r>    -3.0040     0.1093     0.1525 </r>
       <r>    -2.9097     0.2363     0.1747 </r>
       <r>    -2.8155     0.2883     0.2019 </r>
       <r>    -2.7212     0.2178     0.2224 </r>
       <r>    -2.6269     0.2082     0.2421 </r>
       <r>    -2.5327     0.3015     0.2705 </r>
       <r>    -2.4384     0.2903     0.2978 </r>
       <r>    -2.3442     0.2167     0.3183 </r>
       <r>    -2.2499     0.1797     0.3352 </r>
       <r>    -2.1557     0.2380     0.3576 </r>
       <r>    -2.0614     0.4689     0.4018 </r>
       <r>    -1.9672     0.3364     0.4335 </r>
       <r>    -1.8729     0.2413     0.4563 </r>
       <r>    -1.7786     0.2534     0.4802 </r>
       <r>    -1.6844     0.3821     0.5162 </r>
       <r>    -1.5901     0.1233     0.5278 </r>
       <r>    -1.4959     0.3323     0.5591 </r>
       <r>    -1.4016     0.5008     0.6063 </r>
       <r>    -1.3074     0.4227     0.6462 </r>
       <r>    -1.2131     0.2316     0.6680 </r>
       <r>    -1.1189     0.3289     0.6990 </r>
       <r>    -1.0246     0.3904     0.7358 </r>
       <r>    -0.9303     0.3333     0.7672 </r>
       <r>    -0.8361     0.3434     0.7996 </r>
       <r>    -0.7418     0.3482     0.8324 </r>
       <r>    -0.6476     0.4591     0.8757 </r>
       <r>    -0.5533     0.3907     0.9125 </r>
       <r>    -0.4591     0.1886     0.9303 </r>
       <r>    -0.3648     0.4095     0.9689 </r>
       <r>    -0.2706     0.6123     1.0266 </r>
       <r>    -0.1763     0.5661     1.0799 </r>
       <r>    -0.0820     0.2788     1.1062 </r>
       <r>     0.0122     0.3051     1.1350 </r>
       <r>     0.1065     0.3864     1.1714 </r>
       <r>     0.2007     0.3717     1.2064 </r>
       <r>     0.2950     0.3207     1.2366 </r>
       <r>     0.3892     0.4855     1.2824 </r>
       <r>     0.4835     0.6540     1.3440 </r>
       <r>     0.5777     0.4449     1.3860 </r>
       <r>     0.6720     0.4487     1.4283 </r>
       <r>     0.7663     0.4971     1.4751 </r>
       <r>     0.8605     0.3806     1.5110 </r>
       <r>     0.9548     0.3514     1.5441 </r>
       <r>     1.0490     0.5017     1.5914 </r>
       <r>     1.1433     0.4997     1.6385 </r>
       <r>     1.2375     0.4328     1.6793 </r>
       <r>     1.3318     0.4694     1.7235 </r>
       <r>     1.4260     0.4460     1.7656 </r>
       <r>     1.5203     0.5728     1.8196 </r>
       <r>     1.6145     0.5788     1.8741 </r>
       <r>     1.7088     0.3784     1.9098 </r>
       <r>     1.8031     0.5054     1.9574 </r>
       <r>     1.8973     0.6200     2.0159 </r>
       <r>     1.9916     0.4424     2.0576 </r>
       <r>     2.0858     0.5060     2.1053 </r>
       <r>     2.1801     0.5183     2.1541 </r>
       <r>     2.2743     0.6494     2.2153 </r>
       <r>     2.3686     0.5148     2.2638 </r>
       <r>     2.4628     0.4568     2.3069 </r>
       <r>     2.5571     0.3162     2.3367 </r>
       <r>     2.6514     0.5345     2.3871 </r>
       <r>     2.7456     0.5132     2.4354 </r>
       <r>     2.8399     0.6076     2.4927 </r>
       <r>     2.9341     0.8419     2.5721 </r>
       <r>     3.0284     0.5927     2.6279 </r>
       <r>     3.1226     0.5098     2.6760 </r>
       <r>     3.2169     0.5061     2.7237 </r>
       <r>     3.3111     0.7511     2.7945 </r>
       <r>     3.4054     0.4313     2.8351 </r>
       <r>     3.4997     0.4677     2.8792 </r>
       <r>     3.5939     0.4597     2.9226 </r>
       <r>     3.6882     0.5679     2.9761 </r>
       <r>     3.7824     0.5297     3.0260 </r>
       <r>     3.8767     0.6581     3.0880 </r>
       <r>     3.9709     0.7443     3.1582 </r>
       <r>     4.0652     0.7340     3.2274 </r>
       <r>     4.1594     0.6130     3.2852 </r>
       <r>     4.2537     0.4533     3.3279 </r>
       <r>     4.3480     0.5037     3.3754 </r>
       <r>     4.4422     0.5986     3.4318 </r>
       <r>     4.5365     0.7184     3.4995 </r>
       <r>     4.6307     0.7070     3.5661 </r>
       <r>     4.7250     0.6731     3.6296 </r>
       <r>     4.8192     0.4309     3.6702 </r>
       <r>     4.9135     0.6998     3.7361 </r>
       <r>     5.0077     0.6868     3.8009 </r>
       <r>     5.1020     0.5487     3.8526 </r>
       <r>     5.1963     0.5806     3.9073 </r>
       <r>     5.2905     0.7373     3.9768 </r>
       <r>     5.3848     0.6559     4.0386 </r>
       <r>     5.4790     0.5881     4.0941 </r>
       <r>     5.5733     0.5801     4.1487 </r>
       <r>     5.6675     0.7003     4.2148 </r>
       <r>     5.7618     0.7674     4.2871 </r>
       <r>     5.8560     0.6283     4.3463 </r>
       <r>     5.9503     0.8635     4.4277 </r>
       <r>     6.0446     0.8304     4.5060 </r>
       <r>     6.1388     0.5203     4.5550 </r>
       <r>     6.2331     0.5018     4.6023 </r>
       <r>     6.3273     0.8275     4.6803 </r>
       <r>     6.4216     0.6606     4.7426 </r>
       <r>     6.5158     0.7548     4.8137 </r>
       <r>     6.6101     0.5302     4.8637 </r>
       <r>     6.7043     0.5199     4.9127 </r>
       <r>     6.7986     0.8090     4.9889 </r>
       <r>     6.8929     0.5764     5.0433 </r>
       <r>     6.9871     0.7435     5.1134 </r>
       <r>     7.0814     1.0580     5.2131 </r>
       <r>     7.1756     0.9111     5.2990 </r>
       <r>     7.2699     0.5595     5.3517 </r>
       <r>     7.3641     0.7059     5.4182 </r>
       <r>     7.4584     0.8246     5.4959 </r>
       <r>     7.5526     0.8037     5.5717 </r>
       <r>     7.6469     0.6413     5.6321 </r>
       <r>     7.7412     0.5554     5.6845 </r>
       <r>     7.8354     0.7377     5.7540 </r>
       <r>     7.9297     0.5710     5.8078 </r>
       <r>     8.0239     0.7315     5.8768 </r>
       <r>     8.1182     1.0778     5.9784 </r>
       <r>     8.2124     0.8444     6.0580 </r>
       <r>     8.3067     0.6179     6.1162 </r>
       <r>     8.4009     0.9208     6.2030 </r>
       <r>     8.4952     0.6993     6.2689 </r>
       <r>     8.5895     1.0151     6.3646 </r>
       <r>     8.6837     0.5699     6.4183 </r>
       <r>     8.7780     0.6938     6.4837 </r>
       <r>     8.8722     0.6847     6.5482 </r>
       <r>     8.9665     1.0004     6.6425 </r>
       <r>     9.0607     0.6824     6.7068 </r>
       <r>     9.1550     0.8654     6.7884 </r>
       <r>     9.2492     1.0649     6.8888 </r>
       <r>     9.3435     0.6296     6.9481 </r>
       <r>     9.4378     0.8877     7.0318 </r>
       <r>     9.5320     0.8801     7.1147 </r>
       <r>     9.6263     0.8580     7.1956 </r>
       <r>     9.7205     0.8590     7.2766 </r>
       <r>     9.8148     0.7645     7.3487 </r>
       <r>     9.9090     0.8397     7.4278 </r>
       <r>    10.0033     0.8946     7.5121 </r>
       <r>    10.0975     1.0154     7.6078 </r>
       <r>    10.1918     0.6296     7.6672 </r>
       <r>    10.2861     1.0463     7.7658 </r>
       <r>    10.3803     0.8662     7.8474 </r>
       <r>    10.4746     0.7981     7.9227 </r>
       <r>    10.5688     1.0816     8.0246 </r>
       <r>    10.6631     0.9853     8.1175 </r>
       <r>    10.7573     0.8856     8.2010 </r>
       <r>    10.8516     0.7609     8.2727 </r>
       <r>    10.9458     0.8975     8.3573 </r>
       <r>    11.0401     0.8398     8.4364 </r>
       <r>    11.1344     1.1031     8.5404 </r>
       <r>    11.2286     0.8350     8.6191 </r>
       <r>    11.3229     0.6273     8.6782 </r>
       <r>    11.4171     0.8972     8.7628 </r>
       <r>    11.5114     0.8582     8.8437 </r>
       <r>    11.6056     0.7244     8.9120 </r>
       <r>    11.6999     0.7628     8.9839 </r>
       <r>    11.7941     0.7706     9.0565 </r>
       <r>    11.8884     1.0217     9.1528 </r>
       <r>    11.9827     0.9664     9.2439 </r>
       <r>    12.0769     0.8241     9.3216 </r>
       <r>    12.1712     0.9088     9.4072 </r>
       <r>    12.2654     0.6683     9.4702 </r>
       <r>    12.3597     0.8773     9.5529 </r>
       <r>    12.4539     0.9203     9.6397 </r>
       <r>    12.5482     0.6815     9.7039 </r>
       <r>    12.6424     0.7903     9.7784 </r>
       <r>    12.7367     0.7039     9.8447 </r>
       <r>    12.8310     0.7713     9.9174 </r>
       <r>    12.9252     0.7909     9.9920 </r>
       <r>    13.0195     0.8073    10.0681 </r>
       <r>    13.1137     1.1280    10.1744 </r>
       <r>    13.2080     1.0154    10.2701 </r>
       <r>    13.3022     0.6739    10.3336 </r>
       <r>    13.3965     1.0823    10.4356 </r>
       <r>    13.4907     1.0090    10.5307 </r>
       <r>    13.5850     0.9589    10.6211 </r>
       <r>    13.6792     0.7466    10.6915 </r>
       <r>    13.7735     0.8249    10.7692 </r>
       <r>    13.8678     1.1027    10.8732 </r>
       <r>    13.9620     0.6193    10.9316 </r>
       <r>    14.0563     0.7199    10.9994 </r>
       <r>    14.1505     0.9116    11.0853 </r>
       <r>    14.2448     0.8207    11.1627 </r>
       <r>    14.3390     0.8516    11.2430 </r>
       <r>    14.4333     1.1805    11.3542 </r>
       <r>    14.5275     1.0156    11.4500 </r>
       <r>    14.6218     1.2192    11.5649 </r>
       <r>    14.7161     0.8838    11.6482 </r>
       <r>    14.8103     0.9978    11.7422 </r>
       <r>    14.9046     0.8613    11.8234 </r>
       <r>    14.9988     0.9025    11.9085 </r>
       <r>    15.0931     1.0328    12.0058 </r>
       <r>    15.1873     1.1258    12.1119 </r>
       <r>    15.2816     0.7892    12.1863 </r>
       <r>    15.3758     0.8465    12.2661 </r>
       <r>    15.4701     1.0293    12.3631 </r>
       <r>    15.5644     0.7708    12.4358 </r>
       <r>    15.6586     1.0872    12.5383 </r>
       <r>    15.7529     1.1544    12.6471 </r>
       <r>    15.8471     1.1460    12.7551 </r>
       <r>    15.9414     0.8888    12.8389 </r>
       <r>    16.0356     0.8070    12.9149 </r>
       <r>    16.1299     1.2483    13.0326 </r>
       <r>    16.2241     1.1998    13.1457 </r>
       <r>    16.3184     0.8811    13.2287 </r>
       <r>    16.4127     0.7593    13.3003 </r>
       <r>    16.5069     0.9603    13.3908 </r>
       <r>    16.6012     1.0268    13.4876 </r>
       <r>    16.6954     1.0034    13.5822 </r>
       <r>    16.7897     0.9142    13.6683 </r>
       <r>    16.8839     1.3524    13.7958 </r>
       <r>    16.9782     1.0350    13.8934 </r>
       <r>    17.0724     0.8974    13.9779 </r>
       <r>    17.1667     0.8132    14.0546 </r>
       <r>    17.2610     1.1512    14.1631 </r>
       <r>    17.3552     1.0332    14.2605 </r>
       <r>    17.4495     1.1168    14.3657 </r>
       <r>    17.5437     1.2348    14.4821 </r>
       <r>    17.6380     0.9318    14.5700 </r>
       <r>    17.7322     0.7169    14.6375 </r>
       <r>    17.8265     0.7525    14.7085 </r>
       <r>    17.9207     1.0351    14.8060 </r>
       <r>    18.0150     1.3990    14.9379 </r>
       <r>    18.1093     0.9818    15.0304 </r>
       <r>    18.2035     1.1540    15.1392 </r>
       <r>    18.2978     1.0683    15.2399 </r>
       <r>    18.3920     0.8465    15.3197 </r>
       <r>    18.4863     1.1159    15.4248 </r>
       <r>    18.5805     0.9652    15.5158 </r>
       <r>    18.6748     0.9881    15.6090 </r>
       <r>    18.7690     0.8530    15.6894 </r>
       <r>    18.8633     0.7809    15.7630 </r>
       <r>    18.9576     0.2530    15.7868 </r>
       <r>    19.0518     0.3395    15.8188 </r>
       <r>    19.1461     0.5705    15.8726 </r>
       <r>    19.2403     0.5839    15.9276 </r>
       <r>    19.3346     0.2541    15.9516 </r>
       <r>    19.4288     0.0413    15.9555 </r>
       <r>    19.5231     0.0614    15.9613 </r>
       <r>    19.6173     0.1226    15.9728 </r>
       <r>    19.7116     0.0453    15.9771 </r>
       <r>    19.8059     0.0636    15.9831 </r>
       <r>    19.9001     0.0161    15.9846 </r>
       <r>    19.9944    -0.0026    15.9843 </r>
       <r>    20.0886     0.0003    15.9844 </r>
       <r>    20.1829     0.0000    15.9844 </r>
       <r>    20.2771     0.0001    15.9844 </r>
       <r>    20.3714    -0.0004    15.9843 </r>
       <r>    20.4656    -0.0009    15.9843 </r>
       <r>    20.5599     0.0649    15.9904 </r>
       <r>    20.6542     0.0202    15.9923 </r>
       <r>    20.7484     0.0165    15.9938 </r>
       <r>    20.8427     0.0260    15.9963 </r>
       <r>    20.9369    -0.0022    15.9961 </r>
       <r>    21.0312     0.0001    15.9961 </r>
       <r>    21.1254     0.0000    15.9961 </r>
       <r>    21.2197     0.0000    15.9961 </r>
       <r>    21.3139     0.0000    15.9961 </r>
       <r>    21.4082     0.0002    15.9961 </r>
       <r>    21.5025    -0.0014    15.9960 </r>
       <r>    21.5967     0.0082    15.9968 </r>
       <r>    21.6910     0.0339    16.0000 </r>
       <r>    21.7852     0.0009    16.0000 </r>
       <r>    21.8795    -0.0004    16.0000 </r>
       <r>    21.9737     0.0001    16.0000 </r>
       <r>    22.0680     0.0000    16.0000 </r>
       <r>    22.1622     0.0000    16.0000 </r>
       <r>    22.2565     0.0000    16.0000 </r>
       <r>    22.3508     0.0000    16.0000 </r>
       <r>    22.4450     0.0000    16.0000 </r>
       <r>    22.5393     0.0000    16.0000 </r>
       <r>    22.6335     0.0000    16.0000 </r>
       <r>    22.7278     0.0000    16.0000 </r>
       <r>    22.8220     0.0000    16.0000 </r>
       <r>    22.9163     0.0000    16.0000 </r>
      </set>
     </set>
    </array>
   </total>
  </dos>
 </calculation>
 <structure name="finalpos" >
  <crystal>
   <varray name="basis" >
    <v>       2.99149770       0.00000000       0.00000000 </v>
    <v>       0.00000000       3.05254867       0.00000000 </v>
    <v>       0.00000000       0.00000000       3.05254867 </v>
   </varray>
   <i name="volume">     27.87493537 </i>
   <varray name="rec_basis" >
    <v>       0.33428072       0.00000000       0.00000000 </v>
    <v>       0.00000000       0.32759510       0.00000000 </v>
    <v>       0.00000000       0.00000000       0.32759510 </v>
   </varray>
  </crystal>
  <varray name="positions" >
   <v>       0.00000000       0.00000000       0.00000000 </v>
   <v>       0.50000000       0.50000000       0.50000000 </v>
  </varray>
 </structure>
</modeling>
