<?xml version="1.0" encoding="ISO-8859-1"?>
<modeling>
 <generator>
  <i name="program" type="string">vasp </i>
  <i name="version" type="string">5.4.1  </i>
  <i name="subversion" type="string">24Jun15 (build Jul  8 2015 13:29:37) complex                          parallel </i>
  <i name="platform" type="string">FX10FRT </i>
  <i name="date" type="string">2016 02 29 </i>
  <i name="time" type="string">21:55:24 </i>
 </generator>
 <incar>
  <i type="string" name="PREC">accurate</i>
  <i type="string" name="ALGO"> Normal</i>
  <i type="int" name="ISPIN">     1</i>
  <i type="int" name="IBRION">    -1</i>
  <i name="EDIFF">      0.00010000</i>
  <i type="int" name="NSW">     0</i>
  <i type="int" name="ISIF">     2</i>
  <i name="ENCUT">    400.00000000</i>
  <i type="int" name="ISMEAR">     2</i>
  <i name="SIGMA">      0.01000000</i>
  <i type="int" name="NWRITE">     1</i>
  <v type="int" name="KPOINT_BSE">    -1     0     0     0</v>
 </incar>
 <kpoints>
  <generation param="Monkhorst-Pack">
   <v type="int" name="divisions">       8        8        8 </v>
   <v name="usershift">      0.00000000       0.00000000       0.00000000 </v>
   <v name="genvec1">      0.12500000       0.00000000       0.00000000 </v>
   <v name="genvec2">      0.00000000       0.12500000       0.00000000 </v>
   <v name="genvec3">      0.00000000       0.00000000       0.12500000 </v>
   <v name="shift">      0.50000000       0.50000000       0.50000000 </v>
  </generation>
  <varray name="kpointlist" >
   <v>       0.06250000       0.06250000       0.06250000 </v>
   <v>       0.18750000       0.06250000       0.06250000 </v>
   <v>       0.31250000       0.06250000       0.06250000 </v>
   <v>       0.43750000       0.06250000       0.06250000 </v>
   <v>      -0.43750000       0.06250000       0.06250000 </v>
   <v>      -0.31250000       0.06250000       0.06250000 </v>
   <v>      -0.18750000       0.06250000       0.06250000 </v>
   <v>      -0.06250000       0.06250000       0.06250000 </v>
   <v>       0.06250000       0.18750000       0.06250000 </v>
   <v>       0.18750000       0.18750000       0.06250000 </v>
   <v>       0.31250000       0.18750000       0.06250000 </v>
   <v>       0.43750000       0.18750000       0.06250000 </v>
   <v>      -0.43750000       0.18750000       0.06250000 </v>
   <v>      -0.31250000       0.18750000       0.06250000 </v>
   <v>      -0.18750000       0.18750000       0.06250000 </v>
   <v>      -0.06250000       0.18750000       0.06250000 </v>
   <v>       0.06250000       0.31250000       0.06250000 </v>
   <v>       0.18750000       0.31250000       0.06250000 </v>
   <v>       0.31250000       0.31250000       0.06250000 </v>
   <v>       0.43750000       0.31250000       0.06250000 </v>
   <v>      -0.43750000       0.31250000       0.06250000 </v>
   <v>      -0.31250000       0.31250000       0.06250000 </v>
   <v>      -0.18750000       0.31250000       0.06250000 </v>
   <v>      -0.06250000       0.31250000       0.06250000 </v>
   <v>       0.06250000       0.43750000       0.06250000 </v>
   <v>       0.18750000       0.43750000       0.06250000 </v>
   <v>       0.31250000       0.43750000       0.06250000 </v>
   <v>       0.43750000       0.43750000       0.06250000 </v>
   <v>      -0.43750000       0.43750000       0.06250000 </v>
   <v>      -0.31250000       0.43750000       0.06250000 </v>
   <v>      -0.18750000       0.43750000       0.06250000 </v>
   <v>      -0.06250000       0.43750000       0.06250000 </v>
   <v>       0.06250000      -0.43750000       0.06250000 </v>
   <v>       0.18750000      -0.43750000       0.06250000 </v>
   <v>       0.31250000      -0.43750000       0.06250000 </v>
   <v>       0.43750000      -0.43750000       0.06250000 </v>
   <v>      -0.43750000      -0.43750000       0.06250000 </v>
   <v>      -0.31250000      -0.43750000       0.06250000 </v>
   <v>      -0.18750000      -0.43750000       0.06250000 </v>
   <v>      -0.06250000      -0.43750000       0.06250000 </v>
   <v>       0.06250000      -0.31250000       0.06250000 </v>
   <v>       0.18750000      -0.31250000       0.06250000 </v>
   <v>       0.31250000      -0.31250000       0.06250000 </v>
   <v>       0.43750000      -0.31250000       0.06250000 </v>
   <v>      -0.43750000      -0.31250000       0.06250000 </v>
   <v>      -0.31250000      -0.31250000       0.06250000 </v>
   <v>      -0.18750000      -0.31250000       0.06250000 </v>
   <v>      -0.06250000      -0.31250000       0.06250000 </v>
   <v>       0.06250000      -0.18750000       0.06250000 </v>
   <v>       0.18750000      -0.18750000       0.06250000 </v>
   <v>       0.31250000      -0.18750000       0.06250000 </v>
   <v>       0.43750000      -0.18750000       0.06250000 </v>
   <v>      -0.43750000      -0.18750000       0.06250000 </v>
   <v>      -0.31250000      -0.18750000       0.06250000 </v>
   <v>      -0.18750000      -0.18750000       0.06250000 </v>
   <v>      -0.06250000      -0.18750000       0.06250000 </v>
   <v>       0.06250000      -0.06250000       0.06250000 </v>
   <v>       0.18750000      -0.06250000       0.06250000 </v>
   <v>       0.31250000      -0.06250000       0.06250000 </v>
   <v>       0.43750000      -0.06250000       0.06250000 </v>
   <v>      -0.43750000      -0.06250000       0.06250000 </v>
   <v>      -0.31250000      -0.06250000       0.06250000 </v>
   <v>      -0.18750000      -0.06250000       0.06250000 </v>
   <v>      -0.06250000      -0.06250000       0.06250000 </v>
   <v>       0.06250000       0.06250000       0.18750000 </v>
   <v>       0.18750000       0.06250000       0.18750000 </v>
   <v>       0.31250000       0.06250000       0.18750000 </v>
   <v>       0.43750000       0.06250000       0.18750000 </v>
   <v>      -0.43750000       0.06250000       0.18750000 </v>
   <v>      -0.31250000       0.06250000       0.18750000 </v>
   <v>      -0.18750000       0.06250000       0.18750000 </v>
   <v>      -0.06250000       0.06250000       0.18750000 </v>
   <v>       0.06250000       0.18750000       0.18750000 </v>
   <v>       0.18750000       0.18750000       0.18750000 </v>
   <v>       0.31250000       0.18750000       0.18750000 </v>
   <v>       0.43750000       0.18750000       0.18750000 </v>
   <v>      -0.43750000       0.18750000       0.18750000 </v>
   <v>      -0.31250000       0.18750000       0.18750000 </v>
   <v>      -0.18750000       0.18750000       0.18750000 </v>
   <v>      -0.06250000       0.18750000       0.18750000 </v>
   <v>       0.06250000       0.31250000       0.18750000 </v>
   <v>       0.18750000       0.31250000       0.18750000 </v>
   <v>       0.31250000       0.31250000       0.18750000 </v>
   <v>       0.43750000       0.31250000       0.18750000 </v>
   <v>      -0.43750000       0.31250000       0.18750000 </v>
   <v>      -0.31250000       0.31250000       0.18750000 </v>
   <v>      -0.18750000       0.31250000       0.18750000 </v>
   <v>      -0.06250000       0.31250000       0.18750000 </v>
   <v>       0.06250000       0.43750000       0.18750000 </v>
   <v>       0.18750000       0.43750000       0.18750000 </v>
   <v>       0.31250000       0.43750000       0.18750000 </v>
   <v>       0.43750000       0.43750000       0.18750000 </v>
   <v>      -0.43750000       0.43750000       0.18750000 </v>
   <v>      -0.31250000       0.43750000       0.18750000 </v>
   <v>      -0.18750000       0.43750000       0.18750000 </v>
   <v>      -0.06250000       0.43750000       0.18750000 </v>
   <v>       0.06250000      -0.43750000       0.18750000 </v>
   <v>       0.18750000      -0.43750000       0.18750000 </v>
   <v>       0.31250000      -0.43750000       0.18750000 </v>
   <v>       0.43750000      -0.43750000       0.18750000 </v>
   <v>      -0.43750000      -0.43750000       0.18750000 </v>
   <v>      -0.31250000      -0.43750000       0.18750000 </v>
   <v>      -0.18750000      -0.43750000       0.18750000 </v>
   <v>      -0.06250000      -0.43750000       0.18750000 </v>
   <v>       0.06250000      -0.31250000       0.18750000 </v>
   <v>       0.18750000      -0.31250000       0.18750000 </v>
   <v>       0.31250000      -0.31250000       0.18750000 </v>
   <v>       0.43750000      -0.31250000       0.18750000 </v>
   <v>      -0.43750000      -0.31250000       0.18750000 </v>
   <v>      -0.31250000      -0.31250000       0.18750000 </v>
   <v>      -0.18750000      -0.31250000       0.18750000 </v>
   <v>      -0.06250000      -0.31250000       0.18750000 </v>
   <v>       0.06250000      -0.18750000       0.18750000 </v>
   <v>       0.18750000      -0.18750000       0.18750000 </v>
   <v>       0.31250000      -0.18750000       0.18750000 </v>
   <v>       0.43750000      -0.18750000       0.18750000 </v>
   <v>      -0.43750000      -0.18750000       0.18750000 </v>
   <v>      -0.31250000      -0.18750000       0.18750000 </v>
   <v>      -0.18750000      -0.18750000       0.18750000 </v>
   <v>      -0.06250000      -0.18750000       0.18750000 </v>
   <v>       0.06250000      -0.06250000       0.18750000 </v>
   <v>       0.18750000      -0.06250000       0.18750000 </v>
   <v>       0.31250000      -0.06250000       0.18750000 </v>
   <v>       0.43750000      -0.06250000       0.18750000 </v>
   <v>      -0.43750000      -0.06250000       0.18750000 </v>
   <v>      -0.31250000      -0.06250000       0.18750000 </v>
   <v>      -0.18750000      -0.06250000       0.18750000 </v>
   <v>      -0.06250000      -0.06250000       0.18750000 </v>
   <v>       0.06250000       0.06250000       0.31250000 </v>
   <v>       0.18750000       0.06250000       0.31250000 </v>
   <v>       0.31250000       0.06250000       0.31250000 </v>
   <v>       0.43750000       0.06250000       0.31250000 </v>
   <v>      -0.43750000       0.06250000       0.31250000 </v>
   <v>      -0.31250000       0.06250000       0.31250000 </v>
   <v>      -0.18750000       0.06250000       0.31250000 </v>
   <v>      -0.06250000       0.06250000       0.31250000 </v>
   <v>       0.06250000       0.18750000       0.31250000 </v>
   <v>       0.18750000       0.18750000       0.31250000 </v>
   <v>       0.31250000       0.18750000       0.31250000 </v>
   <v>       0.43750000       0.18750000       0.31250000 </v>
   <v>      -0.43750000       0.18750000       0.31250000 </v>
   <v>      -0.31250000       0.18750000       0.31250000 </v>
   <v>      -0.18750000       0.18750000       0.31250000 </v>
   <v>      -0.06250000       0.18750000       0.31250000 </v>
   <v>       0.06250000       0.31250000       0.31250000 </v>
   <v>       0.18750000       0.31250000       0.31250000 </v>
   <v>       0.31250000       0.31250000       0.31250000 </v>
   <v>       0.43750000       0.31250000       0.31250000 </v>
   <v>      -0.43750000       0.31250000       0.31250000 </v>
   <v>      -0.31250000       0.31250000       0.31250000 </v>
   <v>      -0.18750000       0.31250000       0.31250000 </v>
   <v>      -0.06250000       0.31250000       0.31250000 </v>
   <v>       0.06250000       0.43750000       0.31250000 </v>
   <v>       0.18750000       0.43750000       0.31250000 </v>
   <v>       0.31250000       0.43750000       0.31250000 </v>
   <v>       0.43750000       0.43750000       0.31250000 </v>
   <v>      -0.43750000       0.43750000       0.31250000 </v>
   <v>      -0.31250000       0.43750000       0.31250000 </v>
   <v>      -0.18750000       0.43750000       0.31250000 </v>
   <v>      -0.06250000       0.43750000       0.31250000 </v>
   <v>       0.06250000      -0.43750000       0.31250000 </v>
   <v>       0.18750000      -0.43750000       0.31250000 </v>
   <v>       0.31250000      -0.43750000       0.31250000 </v>
   <v>       0.43750000      -0.43750000       0.31250000 </v>
   <v>      -0.43750000      -0.43750000       0.31250000 </v>
   <v>      -0.31250000      -0.43750000       0.31250000 </v>
   <v>      -0.18750000      -0.43750000       0.31250000 </v>
   <v>      -0.06250000      -0.43750000       0.31250000 </v>
   <v>       0.06250000      -0.31250000       0.31250000 </v>
   <v>       0.18750000      -0.31250000       0.31250000 </v>
   <v>       0.31250000      -0.31250000       0.31250000 </v>
   <v>       0.43750000      -0.31250000       0.31250000 </v>
   <v>      -0.43750000      -0.31250000       0.31250000 </v>
   <v>      -0.31250000      -0.31250000       0.31250000 </v>
   <v>      -0.18750000      -0.31250000       0.31250000 </v>
   <v>      -0.06250000      -0.31250000       0.31250000 </v>
   <v>       0.06250000      -0.18750000       0.31250000 </v>
   <v>       0.18750000      -0.18750000       0.31250000 </v>
   <v>       0.31250000      -0.18750000       0.31250000 </v>
   <v>       0.43750000      -0.18750000       0.31250000 </v>
   <v>      -0.43750000      -0.18750000       0.31250000 </v>
   <v>      -0.31250000      -0.18750000       0.31250000 </v>
   <v>      -0.18750000      -0.18750000       0.31250000 </v>
   <v>      -0.06250000      -0.18750000       0.31250000 </v>
   <v>       0.06250000      -0.06250000       0.31250000 </v>
   <v>       0.18750000      -0.06250000       0.31250000 </v>
   <v>       0.31250000      -0.06250000       0.31250000 </v>
   <v>       0.43750000      -0.06250000       0.31250000 </v>
   <v>      -0.43750000      -0.06250000       0.31250000 </v>
   <v>      -0.31250000      -0.06250000       0.31250000 </v>
   <v>      -0.18750000      -0.06250000       0.31250000 </v>
   <v>      -0.06250000      -0.06250000       0.31250000 </v>
   <v>       0.06250000       0.06250000       0.43750000 </v>
   <v>       0.18750000       0.06250000       0.43750000 </v>
   <v>       0.31250000       0.06250000       0.43750000 </v>
   <v>       0.43750000       0.06250000       0.43750000 </v>
   <v>      -0.43750000       0.06250000       0.43750000 </v>
   <v>      -0.31250000       0.06250000       0.43750000 </v>
   <v>      -0.18750000       0.06250000       0.43750000 </v>
   <v>      -0.06250000       0.06250000       0.43750000 </v>
   <v>       0.06250000       0.18750000       0.43750000 </v>
   <v>       0.18750000       0.18750000       0.43750000 </v>
   <v>       0.31250000       0.18750000       0.43750000 </v>
   <v>       0.43750000       0.18750000       0.43750000 </v>
   <v>      -0.43750000       0.18750000       0.43750000 </v>
   <v>      -0.31250000       0.18750000       0.43750000 </v>
   <v>      -0.18750000       0.18750000       0.43750000 </v>
   <v>      -0.06250000       0.18750000       0.43750000 </v>
   <v>       0.06250000       0.31250000       0.43750000 </v>
   <v>       0.18750000       0.31250000       0.43750000 </v>
   <v>       0.31250000       0.31250000       0.43750000 </v>
   <v>       0.43750000       0.31250000       0.43750000 </v>
   <v>      -0.43750000       0.31250000       0.43750000 </v>
   <v>      -0.31250000       0.31250000       0.43750000 </v>
   <v>      -0.18750000       0.31250000       0.43750000 </v>
   <v>      -0.06250000       0.31250000       0.43750000 </v>
   <v>       0.06250000       0.43750000       0.43750000 </v>
   <v>       0.18750000       0.43750000       0.43750000 </v>
   <v>       0.31250000       0.43750000       0.43750000 </v>
   <v>       0.43750000       0.43750000       0.43750000 </v>
   <v>      -0.43750000       0.43750000       0.43750000 </v>
   <v>      -0.31250000       0.43750000       0.43750000 </v>
   <v>      -0.18750000       0.43750000       0.43750000 </v>
   <v>      -0.06250000       0.43750000       0.43750000 </v>
   <v>       0.06250000      -0.43750000       0.43750000 </v>
   <v>       0.18750000      -0.43750000       0.43750000 </v>
   <v>       0.31250000      -0.43750000       0.43750000 </v>
   <v>       0.43750000      -0.43750000       0.43750000 </v>
   <v>      -0.43750000      -0.43750000       0.43750000 </v>
   <v>      -0.31250000      -0.43750000       0.43750000 </v>
   <v>      -0.18750000      -0.43750000       0.43750000 </v>
   <v>      -0.06250000      -0.43750000       0.43750000 </v>
   <v>       0.06250000      -0.31250000       0.43750000 </v>
   <v>       0.18750000      -0.31250000       0.43750000 </v>
   <v>       0.31250000      -0.31250000       0.43750000 </v>
   <v>       0.43750000      -0.31250000       0.43750000 </v>
   <v>      -0.43750000      -0.31250000       0.43750000 </v>
   <v>      -0.31250000      -0.31250000       0.43750000 </v>
   <v>      -0.18750000      -0.31250000       0.43750000 </v>
   <v>      -0.06250000      -0.31250000       0.43750000 </v>
   <v>       0.06250000      -0.18750000       0.43750000 </v>
   <v>       0.18750000      -0.18750000       0.43750000 </v>
   <v>       0.31250000      -0.18750000       0.43750000 </v>
   <v>       0.43750000      -0.18750000       0.43750000 </v>
   <v>      -0.43750000      -0.18750000       0.43750000 </v>
   <v>      -0.31250000      -0.18750000       0.43750000 </v>
   <v>      -0.18750000      -0.18750000       0.43750000 </v>
   <v>      -0.06250000      -0.18750000       0.43750000 </v>
   <v>       0.06250000      -0.06250000       0.43750000 </v>
   <v>       0.18750000      -0.06250000       0.43750000 </v>
   <v>       0.31250000      -0.06250000       0.43750000 </v>
   <v>       0.43750000      -0.06250000       0.43750000 </v>
   <v>      -0.43750000      -0.06250000       0.43750000 </v>
   <v>      -0.31250000      -0.06250000       0.43750000 </v>
   <v>      -0.18750000      -0.06250000       0.43750000 </v>
   <v>      -0.06250000      -0.06250000       0.43750000 </v>
  </varray>
  <varray name="weights" >
   <v>       0.00390625 </v>
   <v>       0.00390625 </v>
   <v>       0.00390625 </v>
   <v>       0.00390625 </v>
   <v>       0.00390625 </v>
   <v>       0.00390625 </v>
   <v>       0.00390625 </v>
   <v>       0.00390625 </v>
   <v>       0.00390625 </v>
   <v>       0.00390625 </v>
   <v>       0.00390625 </v>
   <v>       0.00390625 </v>
   <v>       0.00390625 </v>
   <v>       0.00390625 </v>
   <v>       0.00390625 </v>
   <v>       0.00390625 </v>
   <v>       0.00390625 </v>
   <v>       0.00390625 </v>
   <v>       0.00390625 </v>
   <v>       0.00390625 </v>
   <v>       0.00390625 </v>
   <v>       0.00390625 </v>
   <v>       0.00390625 </v>
   <v>       0.00390625 </v>
   <v>       0.00390625 </v>
   <v>       0.00390625 </v>
   <v>       0.00390625 </v>
   <v>       0.00390625 </v>
   <v>       0.00390625 </v>
   <v>       0.00390625 </v>
   <v>       0.00390625 </v>
   <v>       0.00390625 </v>
   <v>       0.00390625 </v>
   <v>       0.00390625 </v>
   <v>       0.00390625 </v>
   <v>       0.00390625 </v>
   <v>       0.00390625 </v>
   <v>       0.00390625 </v>
   <v>       0.00390625 </v>
   <v>       0.00390625 </v>
   <v>       0.00390625 </v>
   <v>       0.00390625 </v>
   <v>       0.00390625 </v>
   <v>       0.00390625 </v>
   <v>       0.00390625 </v>
   <v>       0.00390625 </v>
   <v>       0.00390625 </v>
   <v>       0.00390625 </v>
   <v>       0.00390625 </v>
   <v>       0.00390625 </v>
   <v>       0.00390625 </v>
   <v>       0.00390625 </v>
   <v>       0.00390625 </v>
   <v>       0.00390625 </v>
   <v>       0.00390625 </v>
   <v>       0.00390625 </v>
   <v>       0.00390625 </v>
   <v>       0.00390625 </v>
   <v>       0.00390625 </v>
   <v>       0.00390625 </v>
   <v>       0.00390625 </v>
   <v>       0.00390625 </v>
   <v>       0.00390625 </v>
   <v>       0.00390625 </v>
   <v>       0.00390625 </v>
   <v>       0.00390625 </v>
   <v>       0.00390625 </v>
   <v>       0.00390625 </v>
   <v>       0.00390625 </v>
   <v>       0.00390625 </v>
   <v>       0.00390625 </v>
   <v>       0.00390625 </v>
   <v>       0.00390625 </v>
   <v>       0.00390625 </v>
   <v>       0.00390625 </v>
   <v>       0.00390625 </v>
   <v>       0.00390625 </v>
   <v>       0.00390625 </v>
   <v>       0.00390625 </v>
   <v>       0.00390625 </v>
   <v>       0.00390625 </v>
   <v>       0.00390625 </v>
   <v>       0.00390625 </v>
   <v>       0.00390625 </v>
   <v>       0.00390625 </v>
   <v>       0.00390625 </v>
   <v>       0.00390625 </v>
   <v>       0.00390625 </v>
   <v>       0.00390625 </v>
   <v>       0.00390625 </v>
   <v>       0.00390625 </v>
   <v>       0.00390625 </v>
   <v>       0.00390625 </v>
   <v>       0.00390625 </v>
   <v>       0.00390625 </v>
   <v>       0.00390625 </v>
   <v>       0.00390625 </v>
   <v>       0.00390625 </v>
   <v>       0.00390625 </v>
   <v>       0.00390625 </v>
   <v>       0.00390625 </v>
   <v>       0.00390625 </v>
   <v>       0.00390625 </v>
   <v>       0.00390625 </v>
   <v>       0.00390625 </v>
   <v>       0.00390625 </v>
   <v>       0.00390625 </v>
   <v>       0.00390625 </v>
   <v>       0.00390625 </v>
   <v>       0.00390625 </v>
   <v>       0.00390625 </v>
   <v>       0.00390625 </v>
   <v>       0.00390625 </v>
   <v>       0.00390625 </v>
   <v>       0.00390625 </v>
   <v>       0.00390625 </v>
   <v>       0.00390625 </v>
   <v>       0.00390625 </v>
   <v>       0.00390625 </v>
   <v>       0.00390625 </v>
   <v>       0.00390625 </v>
   <v>       0.00390625 </v>
   <v>       0.00390625 </v>
   <v>       0.00390625 </v>
   <v>       0.00390625 </v>
   <v>       0.00390625 </v>
   <v>       0.00390625 </v>
   <v>       0.00390625 </v>
   <v>       0.00390625 </v>
   <v>       0.00390625 </v>
   <v>       0.00390625 </v>
   <v>       0.00390625 </v>
   <v>       0.00390625 </v>
   <v>       0.00390625 </v>
   <v>       0.00390625 </v>
   <v>       0.00390625 </v>
   <v>       0.00390625 </v>
   <v>       0.00390625 </v>
   <v>       0.00390625 </v>
   <v>       0.00390625 </v>
   <v>       0.00390625 </v>
   <v>       0.00390625 </v>
   <v>       0.00390625 </v>
   <v>       0.00390625 </v>
   <v>       0.00390625 </v>
   <v>       0.00390625 </v>
   <v>       0.00390625 </v>
   <v>       0.00390625 </v>
   <v>       0.00390625 </v>
   <v>       0.00390625 </v>
   <v>       0.00390625 </v>
   <v>       0.00390625 </v>
   <v>       0.00390625 </v>
   <v>       0.00390625 </v>
   <v>       0.00390625 </v>
   <v>       0.00390625 </v>
   <v>       0.00390625 </v>
   <v>       0.00390625 </v>
   <v>       0.00390625 </v>
   <v>       0.00390625 </v>
   <v>       0.00390625 </v>
   <v>       0.00390625 </v>
   <v>       0.00390625 </v>
   <v>       0.00390625 </v>
   <v>       0.00390625 </v>
   <v>       0.00390625 </v>
   <v>       0.00390625 </v>
   <v>       0.00390625 </v>
   <v>       0.00390625 </v>
   <v>       0.00390625 </v>
   <v>       0.00390625 </v>
   <v>       0.00390625 </v>
   <v>       0.00390625 </v>
   <v>       0.00390625 </v>
   <v>       0.00390625 </v>
   <v>       0.00390625 </v>
   <v>       0.00390625 </v>
   <v>       0.00390625 </v>
   <v>       0.00390625 </v>
   <v>       0.00390625 </v>
   <v>       0.00390625 </v>
   <v>       0.00390625 </v>
   <v>       0.00390625 </v>
   <v>       0.00390625 </v>
   <v>       0.00390625 </v>
   <v>       0.00390625 </v>
   <v>       0.00390625 </v>
   <v>       0.00390625 </v>
   <v>       0.00390625 </v>
   <v>       0.00390625 </v>
   <v>       0.00390625 </v>
   <v>       0.00390625 </v>
   <v>       0.00390625 </v>
   <v>       0.00390625 </v>
   <v>       0.00390625 </v>
   <v>       0.00390625 </v>
   <v>       0.00390625 </v>
   <v>       0.00390625 </v>
   <v>       0.00390625 </v>
   <v>       0.00390625 </v>
   <v>       0.00390625 </v>
   <v>       0.00390625 </v>
   <v>       0.00390625 </v>
   <v>       0.00390625 </v>
   <v>       0.00390625 </v>
   <v>       0.00390625 </v>
   <v>       0.00390625 </v>
   <v>       0.00390625 </v>
   <v>       0.00390625 </v>
   <v>       0.00390625 </v>
   <v>       0.00390625 </v>
   <v>       0.00390625 </v>
   <v>       0.00390625 </v>
   <v>       0.00390625 </v>
   <v>       0.00390625 </v>
   <v>       0.00390625 </v>
   <v>       0.00390625 </v>
   <v>       0.00390625 </v>
   <v>       0.00390625 </v>
   <v>       0.00390625 </v>
   <v>       0.00390625 </v>
   <v>       0.00390625 </v>
   <v>       0.00390625 </v>
   <v>       0.00390625 </v>
   <v>       0.00390625 </v>
   <v>       0.00390625 </v>
   <v>       0.00390625 </v>
   <v>       0.00390625 </v>
   <v>       0.00390625 </v>
   <v>       0.00390625 </v>
   <v>       0.00390625 </v>
   <v>       0.00390625 </v>
   <v>       0.00390625 </v>
   <v>       0.00390625 </v>
   <v>       0.00390625 </v>
   <v>       0.00390625 </v>
   <v>       0.00390625 </v>
   <v>       0.00390625 </v>
   <v>       0.00390625 </v>
   <v>       0.00390625 </v>
   <v>       0.00390625 </v>
   <v>       0.00390625 </v>
   <v>       0.00390625 </v>
   <v>       0.00390625 </v>
   <v>       0.00390625 </v>
   <v>       0.00390625 </v>
   <v>       0.00390625 </v>
   <v>       0.00390625 </v>
   <v>       0.00390625 </v>
   <v>       0.00390625 </v>
   <v>       0.00390625 </v>
   <v>       0.00390625 </v>
   <v>       0.00390625 </v>
   <v>       0.00390625 </v>
   <v>       0.00390625 </v>
   <v>       0.00390625 </v>
  </varray>
 </kpoints>
 <parameters>
  <separator name="general" >
   <i type="string" name="SYSTEM">unknown system</i>
   <i type="logical" name="LCOMPAT"> F  </i>
  </separator>
  <separator name="electronic" >
   <i type="string" name="PREC">accura</i>
   <i name="ENMAX">    400.00000000</i>
   <i name="ENAUG">    322.06900000</i>
   <i name="EDIFF">      0.00010000</i>
   <i type="int" name="IALGO">    38</i>
   <i type="int" name="IWAVPR">    10</i>
   <i type="int" name="NBANDS">    24</i>
   <i name="NELECT">     32.00000000</i>
   <i type="int" name="TURBO">     0</i>
   <i type="int" name="IRESTART">     0</i>
   <i type="int" name="NREBOOT">     0</i>
   <i type="int" name="NMIN">     0</i>
   <i name="EREF">      0.00000000</i>
   <separator name="electronic smearing" >
    <i type="int" name="ISMEAR">     2</i>
    <i name="SIGMA">      0.01000000</i>
    <i name="KSPACING">      0.50000000</i>
    <i type="logical" name="KGAMMA"> T  </i>
   </separator>
   <separator name="electronic projectors" >
    <i type="logical" name="LREAL"> F  </i>
    <v name="ROPT">      0.00000000</v>
    <i type="int" name="LMAXPAW">  -100</i>
    <i type="int" name="LMAXMIX">     2</i>
    <i type="logical" name="NLSPLINE"> F  </i>
   </separator>
   <separator name="electronic startup" >
    <i type="int" name="ISTART">     0</i>
    <i type="int" name="ICHARG">     2</i>
    <i type="int" name="INIWAV">     1</i>
   </separator>
   <separator name="electronic spin" >
    <i type="int" name="ISPIN">     1</i>
    <i type="logical" name="LNONCOLLINEAR"> F  </i>
    <v name="MAGMOM">      1.00000000      1.00000000      1.00000000      1.00000000      1.00000000      1.00000000      1.00000000      1.00000000</v>
    <i name="NUPDOWN">     -1.00000000</i>
    <i type="logical" name="LSORBIT"> F  </i>
    <v name="SAXIS">      0.00000000      0.00000000      1.00000000</v>
    <i type="logical" name="LSPIRAL"> F  </i>
    <v name="QSPIRAL">      0.00000000      0.00000000      0.00000000</v>
    <i type="logical" name="LZEROZ"> F  </i>
   </separator>
   <separator name="electronic exchange-correlation" >
    <i type="logical" name="LASPH"> F  </i>
    <i type="logical" name="LMETAGGA"> F  </i>
   </separator>
   <separator name="electronic convergence" >
    <i type="int" name="NELM">    60</i>
    <i type="int" name="NELMDL">    -5</i>
    <i type="int" name="NELMIN">     2</i>
    <i name="ENINI">    400.00000000</i>
    <separator name="electronic convergence detail" >
     <i type="logical" name="LDIAG"> T  </i>
     <i type="logical" name="LSUBROT"> F  </i>
     <i name="WEIMIN">      0.00000000</i>
     <i name="EBREAK">      0.00000104</i>
     <i name="DEPER">      0.30000000</i>
     <i type="int" name="NRMM">     4</i>
     <i name="TIME">      0.40000000</i>
    </separator>
   </separator>
   <separator name="electronic mixer" >
    <i name="AMIX">      0.40000000</i>
    <i name="BMIX">      1.00000000</i>
    <i name="AMIN">      0.10000000</i>
    <i name="AMIX_MAG">      1.60000000</i>
    <i name="BMIX_MAG">      1.00000000</i>
    <separator name="electronic mixer details" >
     <i type="int" name="IMIX">     4</i>
     <i type="logical" name="MIXFIRST"> F  </i>
     <i type="int" name="MAXMIX">   -45</i>
     <i name="WC">    100.00000000</i>
     <i type="int" name="INIMIX">     1</i>
     <i type="int" name="MIXPRE">     1</i>
     <i type="int" name="MREMOVE">     5</i>
    </separator>
   </separator>
   <separator name="electronic dipolcorrection" >
    <i type="logical" name="LDIPOL"> F  </i>
    <i type="logical" name="LMONO"> F  </i>
    <i type="int" name="IDIPOL">     0</i>
    <i name="EPSILON">      1.00000000</i>
    <v name="DIPOL">   -100.00000000   -100.00000000   -100.00000000</v>
    <i name="EFIELD">      0.00000000</i>
   </separator>
  </separator>
  <separator name="grids" >
   <i type="int" name="NGX">    36</i>
   <i type="int" name="NGY">    36</i>
   <i type="int" name="NGZ">    36</i>
   <i type="int" name="NGXF">    72</i>
   <i type="int" name="NGYF">    72</i>
   <i type="int" name="NGZF">    72</i>
   <i type="logical" name="ADDGRID"> F  </i>
  </separator>
  <separator name="ionic" >
   <i type="int" name="NSW">     0</i>
   <i type="int" name="IBRION">    -1</i>
   <i type="int" name="ISIF">     2</i>
   <i name="PSTRESS">      0.00000000</i>
   <i name="EDIFFG">      0.00100000</i>
   <i type="int" name="NFREE">     0</i>
   <i name="POTIM">      0.50000000</i>
   <i name="SMASS">     -3.00000000</i>
   <i name="SCALEE">      1.00000000</i>
  </separator>
  <separator name="ionic md" >
   <i name="TEBEG">      0.00010000</i>
   <i name="TEEND">      0.00010000</i>
   <i type="int" name="NBLOCK">     1</i>
   <i type="int" name="KBLOCK">     1</i>
   <i type="int" name="NPACO">   256</i>
   <i name="APACO">     16.00000000</i>
  </separator>
  <separator name="symmetry" >
   <i type="int" name="ISYM">     2</i>
   <i name="SYMPREC">      0.00001000</i>
  </separator>
  <separator name="dos" >
   <i type="logical" name="LORBIT"> F  </i>
   <v name="RWIGS">     -1.00000000</v>
   <i type="int" name="NEDOS">   301</i>
   <i name="EMIN">     10.00000000</i>
   <i name="EMAX">    -10.00000000</i>
   <i name="EFERMI">      0.00000000</i>
  </separator>
  <separator name="writing" >
   <i type="int" name="NWRITE">     1</i>
   <i type="logical" name="LWAVE"> T  </i>
   <i type="logical" name="LCHARG"> T  </i>
   <i type="logical" name="LPARD"> F  </i>
   <i type="logical" name="LVTOT"> F  </i>
   <i type="logical" name="LVHAR"> F  </i>
   <i type="logical" name="LELF"> F  </i>
   <i type="logical" name="LOPTICS"> F  </i>
   <v name="STM">      0.00000000      0.00000000      0.00000000      0.00000000      0.00000000      0.00000000      0.00000000</v>
  </separator>
  <separator name="performance" >
   <i type="int" name="NPAR">     8</i>
   <i type="int" name="NSIM">     4</i>
   <i type="int" name="NBLK">    -1</i>
   <i type="logical" name="LPLANE"> T  </i>
   <i type="logical" name="LSCALAPACK"> T  </i>
   <i type="logical" name="LSCAAWARE"> F  </i>
   <i type="logical" name="LSCALU"> F  </i>
   <i type="logical" name="LASYNC"> F  </i>
   <i type="logical" name="LORBITALREAL"> F  </i>
  </separator>
  <separator name="miscellaneous" >
   <i type="int" name="IDIOT">     3</i>
   <i type="logical" name="LMUSIC"> F  </i>
   <v name="POMASS">     28.08500000</v>
   <v name="DARWINR">      0.00000000</v>
   <v name="DARWINV">      1.00000000</v>
   <i type="logical" name="LCORR"> T  </i>
  </separator>
  <i type="logical" name="GGA_COMPAT"> T  </i>
  <i type="logical" name="LBERRY"> F  </i>
  <i type="int" name="ICORELEVEL">     0</i>
  <i type="logical" name="LDAU"> F  </i>
  <i type="int" name="I_CONSTRAINED_M">     0</i>
  <separator name="electronic exchange-correlation" >
   <i type="string" name="GGA">--</i>
   <i type="int" name="VOSKOWN">     0</i>
   <i type="logical" name="LHFCALC"> F  </i>
   <i type="string" name="PRECFOCK"></i>
   <i type="logical" name="LSYMGRAD"> F  </i>
   <i type="logical" name="LHFONE"> F  </i>
   <i type="logical" name="LRHFCALC"> F  </i>
   <i type="logical" name="LTHOMAS"> F  </i>
   <i type="logical" name="LMODELHF"> F  </i>
   <i name="ENCUT4O">     -1.00000000</i>
   <i type="int" name="EXXOEP">     0</i>
   <i type="int" name="FOURORBIT">     0</i>
   <i name="AEXX">      0.00000000</i>
   <i name="HFALPHA">      0.00000000</i>
   <i name="MCALPHA">      0.00000000</i>
   <i name="ALDAX">      1.00000000</i>
   <i name="AGGAX">      1.00000000</i>
   <i name="ALDAC">      1.00000000</i>
   <i name="AGGAC">      1.00000000</i>
   <i type="int" name="NKREDX">     1</i>
   <i type="int" name="NKREDY">     1</i>
   <i type="int" name="NKREDZ">     1</i>
   <i type="logical" name="SHIFTRED"> F  </i>
   <i type="logical" name="ODDONLY"> F  </i>
   <i type="logical" name="EVENONLY"> F  </i>
   <i type="int" name="LMAXFOCK">     0</i>
   <i type="int" name="NMAXFOCKAE">     0</i>
   <i type="logical" name="LFOCKAEDFT"> F  </i>
   <i name="HFSCREEN">      0.00000000</i>
   <i name="HFSCREENC">      0.00000000</i>
   <i type="int" name="NBANDSGWLOW">     0</i>
  </separator>
  <separator name="vdW DFT" >
   <i type="logical" name="LUSE_VDW"> F  </i>
   <i name="Zab_VDW">     -0.84910000</i>
   <i name="PARAM1">      0.12340000</i>
   <i name="PARAM2">      1.00000000</i>
   <i name="PARAM3">      0.00000000</i>
  </separator>
  <separator name="model GW" >
   <i type="int" name="MODEL_GW">     0</i>
   <i name="MODEL_EPS0">     12.26874997</i>
   <i name="MODEL_ALPHA">      1.00000000</i>
  </separator>
  <separator name="linear response parameters" >
   <i type="logical" name="LEPSILON"> F  </i>
   <i type="logical" name="LRPA"> F  </i>
   <i type="logical" name="LNABLA"> F  </i>
   <i type="logical" name="LVEL"> F  </i>
   <i type="int" name="KINTER">     0</i>
   <i name="CSHIFT">      0.10000000</i>
   <i name="OMEGAMAX">     -1.00000000</i>
   <i name="DEG_THRESHOLD">      0.00200000</i>
  </separator>
  <separator name="orbital magnetization" >
   <i type="logical" name="NUCIND"> F  </i>
   <v name="MAGPOS">      0.00000000      0.00000000      0.00000000</v>
   <i type="logical" name="LNICSALL"> T  </i>
   <i type="logical" name="ORBITALMAG"> F  </i>
   <i type="logical" name="LMAGBLOCH"> F  </i>
   <i type="logical" name="LCHIMAG"> F  </i>
   <i type="logical" name="LGAUGE"> T  </i>
   <i type="int" name="MAGATOM">     0</i>
   <v name="MAGDIPOL">      0.00000000      0.00000000      0.00000000</v>
   <v name="AVECCONST">      0.00000000      0.00000000      0.00000000</v>
  </separator>
  <separator name="response functions" >
   <i type="logical" name="LADDER"> F  </i>
   <i type="logical" name="LFXC"> F  </i>
   <i type="logical" name="LHARTREE"> T  </i>
   <i type="int" name="IBSE">     0</i>
   <v type="int" name="KPOINT">    -1     0     0     0</v>
   <i type="logical" name="LTCTE"> F  </i>
   <i type="logical" name="LTETE"> F  </i>
   <i type="logical" name="LTRIPLET"> F  </i>
   <i type="logical" name="LFXCEPS"> F  </i>
   <i type="logical" name="LFXHEG"> F  </i>
   <i type="int" name="NATURALO">     0</i>
   <i type="logical" name="L2ORDER"> F  </i>
   <i type="logical" name="LUSEW"> F  </i>
   <i name="ENCUTGW">     -2.00000000</i>
   <i name="ENCUTGWSOFT">     -2.00000000</i>
   <i name="ENCUTLF">     -1.00000000</i>
   <i type="int" name="LMAXMP2">    -1</i>
   <i name="SCISSOR">      0.00000000</i>
   <i type="int" name="NOMEGA">     0</i>
   <i type="int" name="NOMEGAR">     0</i>
   <i type="int" name="NBANDSGW">    -1</i>
   <i type="int" name="NBANDSO">    -1</i>
   <i type="int" name="NBANDSV">    -1</i>
   <i type="int" name="NELM">     1</i>
   <i type="int" name="NELMHF">     1</i>
   <i type="int" name="DIM">     3</i>
   <i type="int" name="ANTIRES">     0</i>
   <i name="OMEGAMAX">    -30.00000000</i>
   <i name="OMEGAMIN">    -30.00000000</i>
   <i name="OMEGATL">   -200.00000000</i>
   <i type="int" name="OMEGAGRID">     0</i>
   <i name="CSHIFT">     -0.10000000</i>
   <i type="logical" name="SELFENERGY"> F  </i>
   <i type="logical" name="LSPECTRAL"> F  </i>
   <i type="logical" name="LSPECTRALGW"> F  </i>
   <i type="logical" name="LSINGLES"> F  </i>
   <i type="logical" name="LFERMIGW"> F  </i>
   <i type="logical" name="ODDONLYGW"> F  </i>
   <i type="logical" name="EVENONLYGW"> F  </i>
   <i type="int" name="NKREDLFX">     1</i>
   <i type="int" name="NKREDLFY">     1</i>
   <i type="int" name="NKREDLFZ">     1</i>
   <i type="int" name="MAXMEM">  1800</i>
   <i type="int" name="TELESCOPE">     0</i>
   <i type="int" name="TAUPAR">     1</i>
   <i type="int" name="OMEGAPAR">    -1</i>
   <i name="LAMBDA">      1.00000000</i>
  </separator>
  <separator name="External order field" >
   <i name="OFIELD_KAPPA">      0.00000000</i>
   <v name="OFIELD_K">      0.00000000      0.00000000      0.00000000</v>
   <i name="OFIELD_Q6_NEAR">      0.00000000</i>
   <i name="OFIELD_Q6_FAR">      0.00000000</i>
   <i name="OFIELD_A">      0.00000000</i>
  </separator>
 </parameters>
 <atominfo>
  <atoms>       8 </atoms>
  <types>       1 </types>
  <array name="atoms" >
   <dimension dim="1">ion</dimension>
   <field type="string">element</field>
   <field type="int">atomtype</field>
   <set>
    <rc><c>Si</c><c>   1</c></rc>
    <rc><c>Si</c><c>   1</c></rc>
    <rc><c>Si</c><c>   1</c></rc>
    <rc><c>Si</c><c>   1</c></rc>
    <rc><c>Si</c><c>   1</c></rc>
    <rc><c>Si</c><c>   1</c></rc>
    <rc><c>Si</c><c>   1</c></rc>
    <rc><c>Si</c><c>   1</c></rc>
   </set>
  </array>
  <array name="atomtypes" >
   <dimension dim="1">type</dimension>
   <field type="int">atomspertype</field>
   <field type="string">element</field>
   <field>mass</field>
   <field>valence</field>
   <field type="string">pseudopotential</field>
   <set>
    <rc><c>   8</c><c>Si</c><c>     28.08500000</c><c>      4.00000000</c><c>  PAW_PBE Si 05Jan2001                  </c></rc>
   </set>
  </array>
 </atominfo>
 <structure name="initialpos" >
  <crystal>
   <varray name="basis" >
    <v>       5.46906415       0.00000000       0.00000000 </v>
    <v>       0.00000000       5.46906415       0.00000000 </v>
    <v>       0.00000000       0.00000000       5.46906415 </v>
   </varray>
   <i name="volume">    163.58333295 </i>
   <varray name="rec_basis" >
    <v>       0.18284664       0.00000000       0.00000000 </v>
    <v>       0.00000000       0.18284664       0.00000000 </v>
    <v>       0.00000000       0.00000000       0.18284664 </v>
   </varray>
  </crystal>
  <varray name="positions" >
   <v>       0.15907980       0.00400892       0.09493703 </v>
   <v>       0.40763153       0.27867315       0.34316810 </v>
   <v>       0.63898563       0.50597710       0.08347887 </v>
   <v>       0.88808689       0.75180340       0.34574910 </v>
   <v>       0.63901330       0.00640033       0.59175411 </v>
   <v>       0.90008600       0.23469403       0.83809130 </v>
   <v>       0.14400293       0.50197134       0.58709576 </v>
   <v>       0.40624538       0.75346597       0.84382984 </v>
  </varray>
 </structure>
 <calculation>
  <scstep>
   <time name="dav">    6.16    6.21</time>
   <time name="total">    6.22    6.29</time>
   <energy>
    <i name="alphaZ">     13.17029267 </i>
    <i name="ewald">   -907.09179496 </i>
    <i name="hartreedc">    -45.63761851 </i>
    <i name="XCdc">    -74.73914881 </i>
    <i name="pawpsdc">    704.99039692 </i>
    <i name="pawaedc">   -564.24414232 </i>
    <i name="eentropy">     -0.00002262 </i>
    <i name="bandstr">    103.46180818 </i>
    <i name="atom">    824.52596983 </i>
    <i name="e_fr_energy">     54.43574038 </i>
    <i name="e_wo_entrp">     54.43576300 </i>
    <i name="e_0_energy">     54.43574603 </i>
   </energy>
  </scstep>
  <scstep>
   <time name="dav">    7.54    7.54</time>
   <time name="total">    7.54    7.57</time>
   <energy>
    <i name="e_fr_energy">    -39.57113041 </i>
    <i name="e_wo_entrp">    -39.57113041 </i>
    <i name="e_0_energy">    -39.57113041 </i>
   </energy>
  </scstep>
  <scstep>
   <time name="dav">    7.51    7.52</time>
   <time name="total">    7.54    7.55</time>
   <energy>
    <i name="e_fr_energy">    -43.75043858 </i>
    <i name="e_wo_entrp">    -43.75044213 </i>
    <i name="e_0_energy">    -43.75043947 </i>
   </energy>
  </scstep>
  <scstep>
   <time name="dav">    7.28    7.30</time>
   <time name="total">    7.31    7.31</time>
   <energy>
    <i name="e_fr_energy">    -43.82204805 </i>
    <i name="e_wo_entrp">    -43.82204805 </i>
    <i name="e_0_energy">    -43.82204805 </i>
   </energy>
  </scstep>
  <scstep>
   <time name="dav">    7.57    7.58</time>
   <time name="total">    7.78    7.81</time>
   <energy>
    <i name="e_fr_energy">    -43.82382004 </i>
    <i name="e_wo_entrp">    -43.82382004 </i>
    <i name="e_0_energy">    -43.82382004 </i>
   </energy>
  </scstep>
  <scstep>
   <time name="dav">    7.08    7.08</time>
   <time name="total">    7.31    7.32</time>
   <energy>
    <i name="e_fr_energy">    -43.34571484 </i>
    <i name="e_wo_entrp">    -43.34571484 </i>
    <i name="e_0_energy">    -43.34571484 </i>
   </energy>
  </scstep>
  <scstep>
   <time name="dav">    6.95    6.95</time>
   <time name="total">    7.18    7.20</time>
   <energy>
    <i name="e_fr_energy">    -43.13059868 </i>
    <i name="e_wo_entrp">    -43.13059868 </i>
    <i name="e_0_energy">    -43.13059868 </i>
   </energy>
  </scstep>
  <scstep>
   <time name="dav">    7.36    7.37</time>
   <time name="total">    7.61    7.62</time>
   <energy>
    <i name="e_fr_energy">    -43.13441651 </i>
    <i name="e_wo_entrp">    -43.13441920 </i>
    <i name="e_0_energy">    -43.13441718 </i>
   </energy>
  </scstep>
  <scstep>
   <time name="dav">    7.43    7.43</time>
   <time name="total">    7.68    7.68</time>
   <energy>
    <i name="e_fr_energy">    -43.13547033 </i>
    <i name="e_wo_entrp">    -43.13547304 </i>
    <i name="e_0_energy">    -43.13547101 </i>
   </energy>
  </scstep>
  <scstep>
   <time name="dav">    7.20    7.20</time>
   <time name="total">    7.43    7.45</time>
   <energy>
    <i name="e_fr_energy">    -43.13564281 </i>
    <i name="e_wo_entrp">    -43.13564550 </i>
    <i name="e_0_energy">    -43.13564348 </i>
   </energy>
  </scstep>
  <scstep>
   <time name="dav">    5.89    5.89</time>
   <time name="total">    5.95    5.94</time>
   <energy>
    <i name="alphaZ">     13.17029267 </i>
    <i name="ewald">   -907.09179496 </i>
    <i name="hartreedc">    -60.94590625 </i>
    <i name="XCdc">    -72.25016821 </i>
    <i name="pawpsdc">   3321.10416326 </i>
    <i name="pawaedc">  -3181.18503756 </i>
    <i name="eentropy">      0.00000270 </i>
    <i name="bandstr">     19.53676723 </i>
    <i name="atom">    824.52596983 </i>
    <i name="e_fr_energy">    -43.13571130 </i>
    <i name="e_wo_entrp">    -43.13571399 </i>
    <i name="e_0_energy">    -43.13571197 </i>
   </energy>
  </scstep>
  <structure>
   <crystal>
    <varray name="basis" >
     <v>       5.46906415       0.00000000       0.00000000 </v>
     <v>       0.00000000       5.46906415       0.00000000 </v>
     <v>       0.00000000       0.00000000       5.46906415 </v>
    </varray>
    <i name="volume">    163.58333295 </i>
    <varray name="rec_basis" >
     <v>       0.18284664       0.00000000       0.00000000 </v>
     <v>       0.00000000       0.18284664       0.00000000 </v>
     <v>       0.00000000       0.00000000       0.18284664 </v>
    </varray>
   </crystal>
   <varray name="positions" >
    <v>       0.15907980       0.00400892       0.09493703 </v>
    <v>       0.40763153       0.27867315       0.34316810 </v>
    <v>       0.63898563       0.50597710       0.08347887 </v>
    <v>       0.88808689       0.75180340       0.34574910 </v>
    <v>       0.63901330       0.00640033       0.59175411 </v>
    <v>       0.90008600       0.23469403       0.83809130 </v>
    <v>       0.14400293       0.50197134       0.58709576 </v>
    <v>       0.40624538       0.75346597       0.84382984 </v>
   </varray>
  </structure>
  <varray name="forces" >
   <v>      -0.25442043      -0.02722599       0.53545950 </v>
   <v>      -0.74799367      -1.31614437      -0.04377604 </v>
   <v>       1.64395092      -0.24827619      -0.09062524 </v>
   <v>       0.37175465       0.28939399      -0.53890582 </v>
   <v>       0.27384887      -0.00018727      -0.35093291 </v>
   <v>       0.08525485       0.84464136       0.31064473 </v>
   <v>      -0.19756224       0.30486070       0.74239464 </v>
   <v>      -1.17483294       0.15293777      -0.56425885 </v>
  </varray>
  <varray name="stress" >
   <v>       2.36959476      -6.14591725      -1.68925388 </v>
   <v>      -6.14591728       1.24850350     -11.41648725 </v>
   <v>      -1.68925397     -11.41648725       4.75476511 </v>
  </varray>
  <energy>
   <i name="e_fr_energy">    -43.13571130 </i>
   <i name="e_wo_entrp">    -43.13571197 </i>
   <i name="e_0_energy">      0.00000270 </i>
  </energy>
  <time name="totalsc">   84.77   85.10</time>
  <eigenvalues>
   <array>
    <dimension dim="1">band</dimension>
    <dimension dim="2">kpoint</dimension>
    <dimension dim="3">spin</dimension>
    <field>eigene</field>
    <field>occ</field>
    <set>
     <set comment="spin 1">
      <set comment="kpoint 1">
       <r>   -6.1716    1.0000 </r>
       <r>   -2.7387    1.0000 </r>
       <r>   -2.6418    1.0000 </r>
       <r>   -2.4517    1.0000 </r>
       <r>   -1.7618    1.0000 </r>
       <r>   -1.6409    1.0000 </r>
       <r>   -1.4836    1.0000 </r>
       <r>    2.5716    1.0000 </r>
       <r>    2.6645    1.0000 </r>
       <r>    2.6933    1.0000 </r>
       <r>    2.7790    1.0000 </r>
       <r>    2.8316    1.0000 </r>
       <r>    2.9139    1.0000 </r>
       <r>    5.2005    1.0000 </r>
       <r>    5.4047    1.0000 </r>
       <r>    5.5276    1.0000 </r>
       <r>    6.2471    0.0000 </r>
       <r>    6.2999    0.0000 </r>
       <r>    6.3477    0.0000 </r>
       <r>    6.7545    0.0000 </r>
       <r>    6.8062    0.0000 </r>
       <r>    6.8629    0.0000 </r>
       <r>    8.1683    0.0000 </r>
       <r>    8.2984    0.0000 </r>
      </set>
      <set comment="kpoint 2">
       <r>   -6.0402    1.0000 </r>
       <r>   -3.4490    1.0000 </r>
       <r>   -2.6254    1.0000 </r>
       <r>   -2.4930    1.0000 </r>
       <r>   -1.7013    1.0000 </r>
       <r>   -1.5448    1.0000 </r>
       <r>   -0.6287    1.0000 </r>
       <r>    2.1762    1.0000 </r>
       <r>    2.2900    1.0000 </r>
       <r>    2.6678    1.0000 </r>
       <r>    2.7562    1.0000 </r>
       <r>    2.8358    1.0000 </r>
       <r>    2.9075    1.0000 </r>
       <r>    4.4217    1.0000 </r>
       <r>    5.0363    1.0000 </r>
       <r>    5.2746    1.0000 </r>
       <r>    6.3227    0.0000 </r>
       <r>    6.7026    0.0000 </r>
       <r>    6.8035    0.0000 </r>
       <r>    7.0939    0.0000 </r>
       <r>    7.5273    0.0000 </r>
       <r>    7.6257    0.0000 </r>
       <r>    8.0646    0.0000 </r>
       <r>    8.5584    0.0000 </r>
      </set>
      <set comment="kpoint 3">
       <r>   -5.7809    1.0000 </r>
       <r>   -4.1859    1.0000 </r>
       <r>   -2.5333    1.0000 </r>
       <r>   -2.4384    1.0000 </r>
       <r>   -1.6685    1.0000 </r>
       <r>   -1.5316    1.0000 </r>
       <r>    0.3937    1.0000 </r>
       <r>    1.8242    1.0000 </r>
       <r>    1.9193    1.0000 </r>
       <r>    2.3815    1.0000 </r>
       <r>    2.4733    1.0000 </r>
       <r>    3.0762    1.0000 </r>
       <r>    3.1191    1.0000 </r>
       <r>    3.5332    1.0000 </r>
       <r>    4.5235    1.0000 </r>
       <r>    4.6679    1.0000 </r>
       <r>    6.4595    0.0000 </r>
       <r>    7.3968    0.0000 </r>
       <r>    7.6868    0.0000 </r>
       <r>    7.7160    0.0000 </r>
       <r>    7.8498    0.0000 </r>
       <r>    8.6462    0.0000 </r>
       <r>    8.7738    0.0000 </r>
       <r>    9.3292    0.0000 </r>
      </set>
      <set comment="kpoint 4">
       <r>   -5.4166    1.0000 </r>
       <r>   -4.7939    1.0000 </r>
       <r>   -2.4459    1.0000 </r>
       <r>   -2.4105    1.0000 </r>
       <r>   -1.6432    1.0000 </r>
       <r>   -1.5295    1.0000 </r>
       <r>    1.4195    1.0000 </r>
       <r>    1.6461    1.0000 </r>
       <r>    1.6970    1.0000 </r>
       <r>    2.1877    1.0000 </r>
       <r>    2.2506    1.0000 </r>
       <r>    2.5055    1.0000 </r>
       <r>    3.3962    1.0000 </r>
       <r>    3.5271    1.0000 </r>
       <r>    4.0347    1.0000 </r>
       <r>    4.0946    1.0000 </r>
       <r>    6.7033    0.0000 </r>
       <r>    7.1298    0.0000 </r>
       <r>    8.4208    0.0000 </r>
       <r>    8.8549    0.0000 </r>
       <r>    9.0019    0.0000 </r>
       <r>    9.2878    0.0000 </r>
       <r>    9.8835    0.0000 </r>
       <r>   10.0175    0.0000 </r>
      </set>
      <set comment="kpoint 5">
       <r>   -5.4150    1.0000 </r>
       <r>   -4.7962    1.0000 </r>
       <r>   -2.4501    1.0000 </r>
       <r>   -2.4110    1.0000 </r>
       <r>   -1.6435    1.0000 </r>
       <r>   -1.5205    1.0000 </r>
       <r>    1.4578    1.0000 </r>
       <r>    1.6354    1.0000 </r>
       <r>    1.6795    1.0000 </r>
       <r>    2.1948    1.0000 </r>
       <r>    2.2647    1.0000 </r>
       <r>    2.4519    1.0000 </r>
       <r>    3.3986    1.0000 </r>
       <r>    3.4775    1.0000 </r>
       <r>    4.0643    1.0000 </r>
       <r>    4.1348    1.0000 </r>
       <r>    6.7055    0.0000 </r>
       <r>    7.1294    0.0000 </r>
       <r>    8.4259    0.0000 </r>
       <r>    8.8916    0.0000 </r>
       <r>    9.0292    0.0000 </r>
       <r>    9.2717    0.0000 </r>
       <r>    9.8315    0.0000 </r>
       <r>    9.9833    0.0000 </r>
      </set>
      <set comment="kpoint 6">
       <r>   -5.7796    1.0000 </r>
       <r>   -4.1893    1.0000 </r>
       <r>   -2.5381    1.0000 </r>
       <r>   -2.4451    1.0000 </r>
       <r>   -1.6662    1.0000 </r>
       <r>   -1.5132    1.0000 </r>
       <r>    0.4182    1.0000 </r>
       <r>    1.7987    1.0000 </r>
       <r>    1.8796    1.0000 </r>
       <r>    2.4064    1.0000 </r>
       <r>    2.5029    1.0000 </r>
       <r>    3.0420    1.0000 </r>
       <r>    3.1176    1.0000 </r>
       <r>    3.4603    1.0000 </r>
       <r>    4.5202    1.0000 </r>
       <r>    4.7720    1.0000 </r>
       <r>    6.4600    0.0000 </r>
       <r>    7.4326    0.0000 </r>
       <r>    7.6560    0.0000 </r>
       <r>    7.7856    0.0000 </r>
       <r>    7.8356    0.0000 </r>
       <r>    8.6099    0.0000 </r>
       <r>    8.7475    0.0000 </r>
       <r>    9.3184    0.0000 </r>
      </set>
      <set comment="kpoint 7">
       <r>   -6.0395    1.0000 </r>
       <r>   -3.4522    1.0000 </r>
       <r>   -2.6273    1.0000 </r>
       <r>   -2.5068    1.0000 </r>
       <r>   -1.6971    1.0000 </r>
       <r>   -1.5239    1.0000 </r>
       <r>   -0.6159    1.0000 </r>
       <r>    2.1453    1.0000 </r>
       <r>    2.2430    1.0000 </r>
       <r>    2.7023    1.0000 </r>
       <r>    2.7752    1.0000 </r>
       <r>    2.8227    1.0000 </r>
       <r>    2.9164    1.0000 </r>
       <r>    4.3264    1.0000 </r>
       <r>    5.0318    1.0000 </r>
       <r>    5.4106    1.0000 </r>
       <r>    6.3199    0.0000 </r>
       <r>    6.7551    0.0000 </r>
       <r>    6.8195    0.0000 </r>
       <r>    7.0838    0.0000 </r>
       <r>    7.4860    0.0000 </r>
       <r>    7.6095    0.0000 </r>
       <r>    8.0586    0.0000 </r>
       <r>    8.5497    0.0000 </r>
      </set>
      <set comment="kpoint 8">
       <r>   -6.1714    1.0000 </r>
       <r>   -2.7396    1.0000 </r>
       <r>   -2.6148    1.0000 </r>
       <r>   -2.5022    1.0000 </r>
       <r>   -1.7419    1.0000 </r>
       <r>   -1.5938    1.0000 </r>
       <r>   -1.5200    1.0000 </r>
       <r>    2.5521    1.0000 </r>
       <r>    2.6167    1.0000 </r>
       <r>    2.6943    1.0000 </r>
       <r>    2.7739    1.0000 </r>
       <r>    2.8527    1.0000 </r>
       <r>    2.9543    1.0000 </r>
       <r>    5.0864    1.0000 </r>
       <r>    5.4094    1.0000 </r>
       <r>    5.6626    1.0000 </r>
       <r>    6.2625    0.0000 </r>
       <r>    6.3243    0.0000 </r>
       <r>    6.3501    0.0000 </r>
       <r>    6.7389    0.0000 </r>
       <r>    6.7780    0.0000 </r>
       <r>    6.8556    0.0000 </r>
       <r>    8.1929    0.0000 </r>
       <r>    8.2693    0.0000 </r>
      </set>
      <set comment="kpoint 9">
       <r>   -6.0392    1.0000 </r>
       <r>   -3.4695    1.0000 </r>
       <r>   -2.6015    1.0000 </r>
       <r>   -2.4793    1.0000 </r>
       <r>   -1.6745    1.0000 </r>
       <r>   -1.5855    1.0000 </r>
       <r>   -0.6422    1.0000 </r>
       <r>    2.2099    1.0000 </r>
       <r>    2.2786    1.0000 </r>
       <r>    2.6373    1.0000 </r>
       <r>    2.7159    1.0000 </r>
       <r>    2.8121    1.0000 </r>
       <r>    2.9992    1.0000 </r>
       <r>    4.4633    1.0000 </r>
       <r>    5.1203    1.0000 </r>
       <r>    5.1363    1.0000 </r>
       <r>    6.3488    0.0000 </r>
       <r>    6.6741    0.0000 </r>
       <r>    6.7435    0.0000 </r>
       <r>    7.1280    0.0000 </r>
       <r>    7.5556    0.0000 </r>
       <r>    7.6345    0.0000 </r>
       <r>    8.0165    0.0000 </r>
       <r>    8.6312    0.0000 </r>
      </set>
      <set comment="kpoint 10">
       <r>   -5.9098    1.0000 </r>
       <r>   -3.4599    1.0000 </r>
       <r>   -3.2564    1.0000 </r>
       <r>   -2.5777    1.0000 </r>
       <r>   -1.5718    1.0000 </r>
       <r>   -0.8483    1.0000 </r>
       <r>   -0.6065    1.0000 </r>
       <r>    1.7862    1.0000 </r>
       <r>    2.3701    1.0000 </r>
       <r>    2.4439    1.0000 </r>
       <r>    2.8065    1.0000 </r>
       <r>    2.8901    1.0000 </r>
       <r>    3.0731    1.0000 </r>
       <r>    3.6962    1.0000 </r>
       <r>    4.7190    1.0000 </r>
       <r>    5.3446    1.0000 </r>
       <r>    6.5819    0.0000 </r>
       <r>    6.7672    0.0000 </r>
       <r>    6.9186    0.0000 </r>
       <r>    7.7576    0.0000 </r>
       <r>    7.8145    0.0000 </r>
       <r>    8.2645    0.0000 </r>
       <r>    8.5373    0.0000 </r>
       <r>    8.6744    0.0000 </r>
      </set>
      <set comment="kpoint 11">
       <r>   -5.6541    1.0000 </r>
       <r>   -4.0839    1.0000 </r>
       <r>   -3.1952    1.0000 </r>
       <r>   -2.6600    1.0000 </r>
       <r>   -1.4447    1.0000 </r>
       <r>   -0.9089    1.0000 </r>
       <r>    0.2024    1.0000 </r>
       <r>    1.5239    1.0000 </r>
       <r>    2.0031    1.0000 </r>
       <r>    2.6090    1.0000 </r>
       <r>    2.7409    1.0000 </r>
       <r>    2.9157    1.0000 </r>
       <r>    3.0201    1.0000 </r>
       <r>    3.1920    1.0000 </r>
       <r>    4.1889    1.0000 </r>
       <r>    4.9822    1.0000 </r>
       <r>    6.9775    0.0000 </r>
       <r>    7.1108    0.0000 </r>
       <r>    7.8403    0.0000 </r>
       <r>    8.0665    0.0000 </r>
       <r>    8.3638    0.0000 </r>
       <r>    8.7936    0.0000 </r>
       <r>    8.8988    0.0000 </r>
       <r>    9.5462    0.0000 </r>
      </set>
      <set comment="kpoint 12">
       <r>   -5.2958    1.0000 </r>
       <r>   -4.6765    1.0000 </r>
       <r>   -3.0144    1.0000 </r>
       <r>   -2.7885    1.0000 </r>
       <r>   -1.2698    1.0000 </r>
       <r>   -1.1047    1.0000 </r>
       <r>    1.0635    1.0000 </r>
       <r>    1.4954    1.0000 </r>
       <r>    1.6664    1.0000 </r>
       <r>    2.0107    1.0000 </r>
       <r>    2.6987    1.0000 </r>
       <r>    2.8243    1.0000 </r>
       <r>    3.0970    1.0000 </r>
       <r>    3.4669    1.0000 </r>
       <r>    3.8966    1.0000 </r>
       <r>    4.3455    1.0000 </r>
       <r>    7.2586    0.0000 </r>
       <r>    7.7167    0.0000 </r>
       <r>    8.1765    0.0000 </r>
       <r>    8.9126    0.0000 </r>
       <r>    9.0607    0.0000 </r>
       <r>    9.4403    0.0000 </r>
       <r>    9.5691    0.0000 </r>
       <r>   10.0029    0.0000 </r>
      </set>
      <set comment="kpoint 13">
       <r>   -5.2911    1.0000 </r>
       <r>   -4.6830    1.0000 </r>
       <r>   -3.0558    1.0000 </r>
       <r>   -2.7336    1.0000 </r>
       <r>   -1.3650    1.0000 </r>
       <r>   -1.0126    1.0000 </r>
       <r>    1.1446    1.0000 </r>
       <r>    1.4605    1.0000 </r>
       <r>    1.6741    1.0000 </r>
       <r>    1.9266    1.0000 </r>
       <r>    2.6429    1.0000 </r>
       <r>    2.8826    1.0000 </r>
       <r>    3.0740    1.0000 </r>
       <r>    3.4932    1.0000 </r>
       <r>    3.7818    1.0000 </r>
       <r>    4.4832    1.0000 </r>
       <r>    7.2709    0.0000 </r>
       <r>    7.7309    0.0000 </r>
       <r>    8.2272    0.0000 </r>
       <r>    8.9197    0.0000 </r>
       <r>    9.0334    0.0000 </r>
       <r>    9.4366    0.0000 </r>
       <r>    9.5120    0.0000 </r>
       <r>   10.0808    0.0000 </r>
      </set>
      <set comment="kpoint 14">
       <r>   -5.6502    1.0000 </r>
       <r>   -4.0911    1.0000 </r>
       <r>   -3.2386    1.0000 </r>
       <r>   -2.5884    1.0000 </r>
       <r>   -1.5408    1.0000 </r>
       <r>   -0.8159    1.0000 </r>
       <r>    0.2613    1.0000 </r>
       <r>    1.4748    1.0000 </r>
       <r>    1.9919    1.0000 </r>
       <r>    2.5728    1.0000 </r>
       <r>    2.7005    1.0000 </r>
       <r>    2.8268    1.0000 </r>
       <r>    3.0973    1.0000 </r>
       <r>    3.1414    1.0000 </r>
       <r>    4.1677    1.0000 </r>
       <r>    5.1453    1.0000 </r>
       <r>    7.0008    0.0000 </r>
       <r>    7.1914    0.0000 </r>
       <r>    7.8368    0.0000 </r>
       <r>    8.0840    0.0000 </r>
       <r>    8.3079    0.0000 </r>
       <r>    8.8116    0.0000 </r>
       <r>    8.9015    0.0000 </r>
       <r>    9.5666    0.0000 </r>
      </set>
      <set comment="kpoint 15">
       <r>   -5.9075    1.0000 </r>
       <r>   -3.4223    1.0000 </r>
       <r>   -3.3391    1.0000 </r>
       <r>   -2.5211    1.0000 </r>
       <r>   -1.6388    1.0000 </r>
       <r>   -0.7189    1.0000 </r>
       <r>   -0.6271    1.0000 </r>
       <r>    1.7267    1.0000 </r>
       <r>    2.3511    1.0000 </r>
       <r>    2.4128    1.0000 </r>
       <r>    2.7925    1.0000 </r>
       <r>    2.8825    1.0000 </r>
       <r>    3.1350    1.0000 </r>
       <r>    3.5816    1.0000 </r>
       <r>    4.7040    1.0000 </r>
       <r>    5.5250    1.0000 </r>
       <r>    6.6458    0.0000 </r>
       <r>    6.8135    0.0000 </r>
       <r>    6.9006    0.0000 </r>
       <r>    7.7467    0.0000 </r>
       <r>    7.8306    0.0000 </r>
       <r>    8.2757    0.0000 </r>
       <r>    8.4553    0.0000 </r>
       <r>    8.5722    0.0000 </r>
      </set>
      <set comment="kpoint 16">
       <r>   -6.0384    1.0000 </r>
       <r>   -3.4710    1.0000 </r>
       <r>   -2.6277    1.0000 </r>
       <r>   -2.4681    1.0000 </r>
       <r>   -1.6882    1.0000 </r>
       <r>   -1.5481    1.0000 </r>
       <r>   -0.6305    1.0000 </r>
       <r>    2.1620    1.0000 </r>
       <r>    2.2578    1.0000 </r>
       <r>    2.6437    1.0000 </r>
       <r>    2.7183    1.0000 </r>
       <r>    2.8305    1.0000 </r>
       <r>    3.0149    1.0000 </r>
       <r>    4.3550    1.0000 </r>
       <r>    5.0892    1.0000 </r>
       <r>    5.2989    1.0000 </r>
       <r>    6.3530    0.0000 </r>
       <r>    6.6844    0.0000 </r>
       <r>    6.7810    0.0000 </r>
       <r>    7.1647    0.0000 </r>
       <r>    7.5038    0.0000 </r>
       <r>    7.6043    0.0000 </r>
       <r>    8.0198    0.0000 </r>
       <r>    8.5852    0.0000 </r>
      </set>
      <set comment="kpoint 17">
       <r>   -5.7750    1.0000 </r>
       <r>   -4.2116    1.0000 </r>
       <r>   -2.5118    1.0000 </r>
       <r>   -2.4132    1.0000 </r>
       <r>   -1.6401    1.0000 </r>
       <r>   -1.5763    1.0000 </r>
       <r>    0.3622    1.0000 </r>
       <r>    1.8513    1.0000 </r>
       <r>    1.9019    1.0000 </r>
       <r>    2.3611    1.0000 </r>
       <r>    2.4278    1.0000 </r>
       <r>    3.0911    1.0000 </r>
       <r>    3.2252    1.0000 </r>
       <r>    3.5630    1.0000 </r>
       <r>    4.5410    1.0000 </r>
       <r>    4.5733    1.0000 </r>
       <r>    6.4921    0.0000 </r>
       <r>    7.4611    0.0000 </r>
       <r>    7.6098    0.0000 </r>
       <r>    7.6555    0.0000 </r>
       <r>    7.8459    0.0000 </r>
       <r>    8.6699    0.0000 </r>
       <r>    8.7619    0.0000 </r>
       <r>    9.3728    0.0000 </r>
      </set>
      <set comment="kpoint 18">
       <r>   -5.6492    1.0000 </r>
       <r>   -4.1091    1.0000 </r>
       <r>   -3.1768    1.0000 </r>
       <r>   -2.6518    1.0000 </r>
       <r>   -1.4519    1.0000 </r>
       <r>   -0.8821    1.0000 </r>
       <r>    0.1673    1.0000 </r>
       <r>    1.5239    1.0000 </r>
       <r>    1.9703    1.0000 </r>
       <r>    2.6483    1.0000 </r>
       <r>    2.7286    1.0000 </r>
       <r>    2.8995    1.0000 </r>
       <r>    3.0151    1.0000 </r>
       <r>    3.2622    1.0000 </r>
       <r>    4.1543    1.0000 </r>
       <r>    4.9833    1.0000 </r>
       <r>    7.0552    0.0000 </r>
       <r>    7.1064    0.0000 </r>
       <r>    7.7423    0.0000 </r>
       <r>    8.1172    0.0000 </r>
       <r>    8.2682    0.0000 </r>
       <r>    8.8158    0.0000 </r>
       <r>    8.9629    0.0000 </r>
       <r>    9.5118    0.0000 </r>
      </set>
      <set comment="kpoint 19">
       <r>   -5.4009    1.0000 </r>
       <r>   -3.9819    1.0000 </r>
       <r>   -3.7822    1.0000 </r>
       <r>   -2.9420    1.0000 </r>
       <r>   -1.1942    1.0000 </r>
       <r>   -0.3046    1.0000 </r>
       <r>   -0.0232    1.0000 </r>
       <r>    1.4029    1.0000 </r>
       <r>    2.0207    1.0000 </r>
       <r>    2.2314    1.0000 </r>
       <r>    2.3158    1.0000 </r>
       <r>    3.1601    1.0000 </r>
       <r>    3.2645    1.0000 </r>
       <r>    3.4812    1.0000 </r>
       <r>    3.6886    1.0000 </r>
       <r>    5.0591    1.0000 </r>
       <r>    7.0520    0.0000 </r>
       <r>    7.8734    0.0000 </r>
       <r>    8.0992    0.0000 </r>
       <r>    8.4255    0.0000 </r>
       <r>    9.0324    0.0000 </r>
       <r>    9.2036    0.0000 </r>
       <r>    9.2711    0.0000 </r>
       <r>    9.4459    0.0000 </r>
      </set>
      <set comment="kpoint 20">
       <r>   -5.0550    1.0000 </r>
       <r>   -4.4505    1.0000 </r>
       <r>   -3.6245    1.0000 </r>
       <r>   -3.2513    1.0000 </r>
       <r>   -0.8746    1.0000 </r>
       <r>   -0.5848    1.0000 </r>
       <r>    0.5670    1.0000 </r>
       <r>    1.3642    1.0000 </r>
       <r>    1.5246    1.0000 </r>
       <r>    1.8134    1.0000 </r>
       <r>    2.5464    1.0000 </r>
       <r>    3.0034    1.0000 </r>
       <r>    3.3847    1.0000 </r>
       <r>    3.5550    1.0000 </r>
       <r>    4.0498    1.0000 </r>
       <r>    4.6275    1.0000 </r>
       <r>    7.6412    0.0000 </r>
       <r>    8.1847    0.0000 </r>
       <r>    8.6464    0.0000 </r>
       <r>    8.8101    0.0000 </r>
       <r>    8.8383    0.0000 </r>
       <r>    9.2928    0.0000 </r>
       <r>    9.3781    0.0000 </r>
       <r>    9.9336    0.0000 </r>
      </set>
      <set comment="kpoint 21">
       <r>   -5.0474    1.0000 </r>
       <r>   -4.4588    1.0000 </r>
       <r>   -3.6631    1.0000 </r>
       <r>   -3.2024    1.0000 </r>
       <r>   -0.9842    1.0000 </r>
       <r>   -0.4728    1.0000 </r>
       <r>    0.6545    1.0000 </r>
       <r>    1.2667    1.0000 </r>
       <r>    1.5081    1.0000 </r>
       <r>    1.8191    1.0000 </r>
       <r>    2.5210    1.0000 </r>
       <r>    3.0383    1.0000 </r>
       <r>    3.3339    1.0000 </r>
       <r>    3.6041    1.0000 </r>
       <r>    3.9203    1.0000 </r>
       <r>    4.7667    1.0000 </r>
       <r>    7.7311    0.0000 </r>
       <r>    8.1933    0.0000 </r>
       <r>    8.6248    0.0000 </r>
       <r>    8.7463    0.0000 </r>
       <r>    8.8746    0.0000 </r>
       <r>    9.2382    0.0000 </r>
       <r>    9.3916    0.0000 </r>
       <r>    9.9471    0.0000 </r>
      </set>
      <set comment="kpoint 22">
       <r>   -5.3944    1.0000 </r>
       <r>   -3.9492    1.0000 </r>
       <r>   -3.8669    1.0000 </r>
       <r>   -2.8707    1.0000 </r>
       <r>   -1.3071    1.0000 </r>
       <r>   -0.1291    1.0000 </r>
       <r>   -0.0099    1.0000 </r>
       <r>    1.3683    1.0000 </r>
       <r>    1.9483    1.0000 </r>
       <r>    2.2338    1.0000 </r>
       <r>    2.2555    1.0000 </r>
       <r>    3.1412    1.0000 </r>
       <r>    3.2157    1.0000 </r>
       <r>    3.5355    1.0000 </r>
       <r>    3.6326    1.0000 </r>
       <r>    5.2157    1.0000 </r>
       <r>    7.1298    0.0000 </r>
       <r>    7.9437    0.0000 </r>
       <r>    8.0755    0.0000 </r>
       <r>    8.4318    0.0000 </r>
       <r>    8.9405    0.0000 </r>
       <r>    9.2695    0.0000 </r>
       <r>    9.2839    0.0000 </r>
       <r>    9.4475    0.0000 </r>
      </set>
      <set comment="kpoint 23">
       <r>   -5.6453    1.0000 </r>
       <r>   -4.1161    1.0000 </r>
       <r>   -3.2225    1.0000 </r>
       <r>   -2.5759    1.0000 </r>
       <r>   -1.5505    1.0000 </r>
       <r>   -0.7867    1.0000 </r>
       <r>    0.2231    1.0000 </r>
       <r>    1.4742    1.0000 </r>
       <r>    1.9598    1.0000 </r>
       <r>    2.6141    1.0000 </r>
       <r>    2.6981    1.0000 </r>
       <r>    2.7889    1.0000 </r>
       <r>    3.0811    1.0000 </r>
       <r>    3.2308    1.0000 </r>
       <r>    4.1463    1.0000 </r>
       <r>    5.1349    1.0000 </r>
       <r>    7.0725    0.0000 </r>
       <r>    7.1768    0.0000 </r>
       <r>    7.7551    0.0000 </r>
       <r>    8.1035    0.0000 </r>
       <r>    8.2859    0.0000 </r>
       <r>    8.7923    0.0000 </r>
       <r>    8.9575    0.0000 </r>
       <r>    9.5334    0.0000 </r>
      </set>
      <set comment="kpoint 24">
       <r>   -5.7737    1.0000 </r>
       <r>   -4.2145    1.0000 </r>
       <r>   -2.5429    1.0000 </r>
       <r>   -2.3881    1.0000 </r>
       <r>   -1.6783    1.0000 </r>
       <r>   -1.5227    1.0000 </r>
       <r>    0.3853    1.0000 </r>
       <r>    1.8063    1.0000 </r>
       <r>    1.8863    1.0000 </r>
       <r>    2.3499    1.0000 </r>
       <r>    2.4870    1.0000 </r>
       <r>    3.0533    1.0000 </r>
       <r>    3.2373    1.0000 </r>
       <r>    3.4788    1.0000 </r>
       <r>    4.5470    1.0000 </r>
       <r>    4.6671    1.0000 </r>
       <r>    6.4973    0.0000 </r>
       <r>    7.4950    0.0000 </r>
       <r>    7.5592    0.0000 </r>
       <r>    7.6860    0.0000 </r>
       <r>    7.9114    0.0000 </r>
       <r>    8.6132    0.0000 </r>
       <r>    8.7417    0.0000 </r>
       <r>    9.3378    0.0000 </r>
      </set>
      <set comment="kpoint 25">
       <r>   -5.3836    1.0000 </r>
       <r>   -4.8481    1.0000 </r>
       <r>   -2.4423    1.0000 </r>
       <r>   -2.3640    1.0000 </r>
       <r>   -1.6066    1.0000 </r>
       <r>   -1.5771    1.0000 </r>
       <r>    1.3137    1.0000 </r>
       <r>    1.6590    1.0000 </r>
       <r>    1.7215    1.0000 </r>
       <r>    2.1480    1.0000 </r>
       <r>    2.2266    1.0000 </r>
       <r>    2.5888    1.0000 </r>
       <r>    3.5220    1.0000 </r>
       <r>    3.5769    1.0000 </r>
       <r>    3.9326    1.0000 </r>
       <r>    4.0477    1.0000 </r>
       <r>    6.7569    0.0000 </r>
       <r>    7.1467    0.0000 </r>
       <r>    8.3534    0.0000 </r>
       <r>    8.8286    0.0000 </r>
       <r>    8.9797    0.0000 </r>
       <r>    9.2698    0.0000 </r>
       <r>    9.9079    0.0000 </r>
       <r>   10.0019    0.0000 </r>
      </set>
      <set comment="kpoint 26">
       <r>   -5.2638    1.0000 </r>
       <r>   -4.7313    1.0000 </r>
       <r>   -2.9787    1.0000 </r>
       <r>   -2.8006    1.0000 </r>
       <r>   -1.2588    1.0000 </r>
       <r>   -1.0829    1.0000 </r>
       <r>    0.9926    1.0000 </r>
       <r>    1.5125    1.0000 </r>
       <r>    1.6025    1.0000 </r>
       <r>    2.0581    1.0000 </r>
       <r>    2.6804    1.0000 </r>
       <r>    2.8067    1.0000 </r>
       <r>    3.1631    1.0000 </r>
       <r>    3.5734    1.0000 </r>
       <r>    3.7918    1.0000 </r>
       <r>    4.3483    1.0000 </r>
       <r>    7.3589    0.0000 </r>
       <r>    7.7236    0.0000 </r>
       <r>    8.1408    0.0000 </r>
       <r>    8.8975    0.0000 </r>
       <r>    8.9574    0.0000 </r>
       <r>    9.4041    0.0000 </r>
       <r>    9.5921    0.0000 </r>
       <r>   10.0063    0.0000 </r>
      </set>
      <set comment="kpoint 27">
       <r>   -5.0279    1.0000 </r>
       <r>   -4.5084    1.0000 </r>
       <r>   -3.5727    1.0000 </r>
       <r>   -3.2755    1.0000 </r>
       <r>   -0.8622    1.0000 </r>
       <r>   -0.5531    1.0000 </r>
       <r>    0.5214    1.0000 </r>
       <r>    1.3439    1.0000 </r>
       <r>    1.5228    1.0000 </r>
       <r>    1.7968    1.0000 </r>
       <r>    2.6061    1.0000 </r>
       <r>    2.9412    1.0000 </r>
       <r>    3.4644    1.0000 </r>
       <r>    3.5340    1.0000 </r>
       <r>    4.0339    1.0000 </r>
       <r>    4.6311    1.0000 </r>
       <r>    7.6486    0.0000 </r>
       <r>    8.3119    0.0000 </r>
       <r>    8.5104    0.0000 </r>
       <r>    8.8125    0.0000 </r>
       <r>    8.9450    0.0000 </r>
       <r>    9.1941    0.0000 </r>
       <r>    9.4173    0.0000 </r>
       <r>    9.8501    0.0000 </r>
      </set>
      <set comment="kpoint 28">
       <r>   -4.7046    1.0000 </r>
       <r>   -4.2482    1.0000 </r>
       <r>   -4.0472    1.0000 </r>
       <r>   -3.7131    1.0000 </r>
       <r>   -0.4297    1.0000 </r>
       <r>   -0.1384    1.0000 </r>
       <r>    0.1478    1.0000 </r>
       <r>    0.7412    1.0000 </r>
       <r>    1.7302    1.0000 </r>
       <r>    2.0199    1.0000 </r>
       <r>    2.1380    1.0000 </r>
       <r>    2.5021    1.0000 </r>
       <r>    3.9400    1.0000 </r>
       <r>    4.1348    1.0000 </r>
       <r>    4.2608    1.0000 </r>
       <r>    4.5877    1.0000 </r>
       <r>    7.6646    0.0000 </r>
       <r>    8.2370    0.0000 </r>
       <r>    8.3125    0.0000 </r>
       <r>    8.4223    0.0000 </r>
       <r>    9.3172    0.0000 </r>
       <r>    9.5823    0.0000 </r>
       <r>    9.8483    0.0000 </r>
       <r>    9.9728    0.0000 </r>
      </set>
      <set comment="kpoint 29">
       <r>   -4.6955    1.0000 </r>
       <r>   -4.2274    1.0000 </r>
       <r>   -4.1148    1.0000 </r>
       <r>   -3.6719    1.0000 </r>
       <r>   -0.5455    1.0000 </r>
       <r>    0.0445    1.0000 </r>
       <r>    0.1690    1.0000 </r>
       <r>    0.6494    1.0000 </r>
       <r>    1.7238    1.0000 </r>
       <r>    2.0275    1.0000 </r>
       <r>    2.1166    1.0000 </r>
       <r>    2.5238    1.0000 </r>
       <r>    3.9686    1.0000 </r>
       <r>    4.0918    1.0000 </r>
       <r>    4.1533    1.0000 </r>
       <r>    4.7132    1.0000 </r>
       <r>    7.7433    0.0000 </r>
       <r>    8.2589    0.0000 </r>
       <r>    8.2963    0.0000 </r>
       <r>    8.3271    0.0000 </r>
       <r>    9.3749    0.0000 </r>
       <r>    9.5702    0.0000 </r>
       <r>    9.7398    0.0000 </r>
       <r>   10.0346    0.0000 </r>
      </set>
      <set comment="kpoint 30">
       <r>   -5.0190    1.0000 </r>
       <r>   -4.5184    1.0000 </r>
       <r>   -3.6194    1.0000 </r>
       <r>   -3.2177    1.0000 </r>
       <r>   -0.9775    1.0000 </r>
       <r>   -0.4304    1.0000 </r>
       <r>    0.5999    1.0000 </r>
       <r>    1.2479    1.0000 </r>
       <r>    1.5105    1.0000 </r>
       <r>    1.7894    1.0000 </r>
       <r>    2.5922    1.0000 </r>
       <r>    2.9841    1.0000 </r>
       <r>    3.3831    1.0000 </r>
       <r>    3.5907    1.0000 </r>
       <r>    3.9260    1.0000 </r>
       <r>    4.7643    1.0000 </r>
       <r>    7.7261    0.0000 </r>
       <r>    8.3331    0.0000 </r>
       <r>    8.5262    0.0000 </r>
       <r>    8.7419    0.0000 </r>
       <r>    8.9771    0.0000 </r>
       <r>    9.1199    0.0000 </r>
       <r>    9.3998    0.0000 </r>
       <r>    9.8693    0.0000 </r>
      </set>
      <set comment="kpoint 31">
       <r>   -5.2583    1.0000 </r>
       <r>   -4.7385    1.0000 </r>
       <r>   -3.0329    1.0000 </r>
       <r>   -2.7305    1.0000 </r>
       <r>   -1.3672    1.0000 </r>
       <r>   -0.9777    1.0000 </r>
       <r>    1.0579    1.0000 </r>
       <r>    1.4829    1.0000 </r>
       <r>    1.6031    1.0000 </r>
       <r>    1.9822    1.0000 </r>
       <r>    2.6223    1.0000 </r>
       <r>    2.8677    1.0000 </r>
       <r>    3.1655    1.0000 </r>
       <r>    3.5714    1.0000 </r>
       <r>    3.7058    1.0000 </r>
       <r>    4.4680    1.0000 </r>
       <r>    7.3755    0.0000 </r>
       <r>    7.7157    0.0000 </r>
       <r>    8.1814    0.0000 </r>
       <r>    8.9448    0.0000 </r>
       <r>    8.9750    0.0000 </r>
       <r>    9.3658    0.0000 </r>
       <r>    9.5129    0.0000 </r>
       <r>   10.0732    0.0000 </r>
      </set>
      <set comment="kpoint 32">
       <r>   -5.3818    1.0000 </r>
       <r>   -4.8505    1.0000 </r>
       <r>   -2.4763    1.0000 </r>
       <r>   -2.3236    1.0000 </r>
       <r>   -1.6776    1.0000 </r>
       <r>   -1.5076    1.0000 </r>
       <r>    1.3384    1.0000 </r>
       <r>    1.6602    1.0000 </r>
       <r>    1.6978    1.0000 </r>
       <r>    2.1269    1.0000 </r>
       <r>    2.2807    1.0000 </r>
       <r>    2.5273    1.0000 </r>
       <r>    3.4591    1.0000 </r>
       <r>    3.5948    1.0000 </r>
       <r>    3.9873    1.0000 </r>
       <r>    4.0634    1.0000 </r>
       <r>    6.7628    0.0000 </r>
       <r>    7.1392    0.0000 </r>
       <r>    8.3522    0.0000 </r>
       <r>    8.8420    0.0000 </r>
       <r>    9.0568    0.0000 </r>
       <r>    9.2582    0.0000 </r>
       <r>    9.8367    0.0000 </r>
       <r>    9.9698    0.0000 </r>
      </set>
      <set comment="kpoint 33">
       <r>   -5.3769    1.0000 </r>
       <r>   -4.8580    1.0000 </r>
       <r>   -2.4479    1.0000 </r>
       <r>   -2.3646    1.0000 </r>
       <r>   -1.6118    1.0000 </r>
       <r>   -1.5544    1.0000 </r>
       <r>    1.4514    1.0000 </r>
       <r>    1.5693    1.0000 </r>
       <r>    1.6517    1.0000 </r>
       <r>    2.2200    1.0000 </r>
       <r>    2.2576    1.0000 </r>
       <r>    2.4476    1.0000 </r>
       <r>    3.4187    1.0000 </r>
       <r>    3.5843    1.0000 </r>
       <r>    4.0342    1.0000 </r>
       <r>    4.0984    1.0000 </r>
       <r>    6.7744    0.0000 </r>
       <r>    7.1301    0.0000 </r>
       <r>    8.3648    0.0000 </r>
       <r>    8.9768    0.0000 </r>
       <r>    9.0785    0.0000 </r>
       <r>    9.2369    0.0000 </r>
       <r>    9.7320    0.0000 </r>
       <r>    9.8623    0.0000 </r>
      </set>
      <set comment="kpoint 34">
       <r>   -5.2529    1.0000 </r>
       <r>   -4.7467    1.0000 </r>
       <r>   -3.0108    1.0000 </r>
       <r>   -2.7643    1.0000 </r>
       <r>   -1.3023    1.0000 </r>
       <r>   -1.0257    1.0000 </r>
       <r>    1.1339    1.0000 </r>
       <r>    1.4646    1.0000 </r>
       <r>    1.5463    1.0000 </r>
       <r>    1.9513    1.0000 </r>
       <r>    2.6805    1.0000 </r>
       <r>    2.7729    1.0000 </r>
       <r>    3.1499    1.0000 </r>
       <r>    3.6456    1.0000 </r>
       <r>    3.7259    1.0000 </r>
       <r>    4.4497    1.0000 </r>
       <r>    7.3634    0.0000 </r>
       <r>    7.7404    0.0000 </r>
       <r>    8.2084    0.0000 </r>
       <r>    8.9450    0.0000 </r>
       <r>    9.1055    0.0000 </r>
       <r>    9.3512    0.0000 </r>
       <r>    9.4439    0.0000 </r>
       <r>   10.0936    0.0000 </r>
      </set>
      <set comment="kpoint 35">
       <r>   -5.0123    1.0000 </r>
       <r>   -4.5288    1.0000 </r>
       <r>   -3.6088    1.0000 </r>
       <r>   -3.2334    1.0000 </r>
       <r>   -0.9252    1.0000 </r>
       <r>   -0.4739    1.0000 </r>
       <r>    0.6637    1.0000 </r>
       <r>    1.1915    1.0000 </r>
       <r>    1.4648    1.0000 </r>
       <r>    1.8198    1.0000 </r>
       <r>    2.5133    1.0000 </r>
       <r>    3.0461    1.0000 </r>
       <r>    3.3911    1.0000 </r>
       <r>    3.6024    1.0000 </r>
       <r>    3.9464    1.0000 </r>
       <r>    4.7450    1.0000 </r>
       <r>    7.7190    0.0000 </r>
       <r>    8.3348    0.0000 </r>
       <r>    8.6284    0.0000 </r>
       <r>    8.7487    0.0000 </r>
       <r>    8.8328    0.0000 </r>
       <r>    9.2353    0.0000 </r>
       <r>    9.4757    0.0000 </r>
       <r>    9.8738    0.0000 </r>
      </set>
      <set comment="kpoint 36">
       <r>   -4.6846    1.0000 </r>
       <r>   -4.2415    1.0000 </r>
       <r>   -4.1154    1.0000 </r>
       <r>   -3.6747    1.0000 </r>
       <r>   -0.4959    1.0000 </r>
       <r>    0.0456    1.0000 </r>
       <r>    0.1778    1.0000 </r>
       <r>    0.6000    1.0000 </r>
       <r>    1.6547    1.0000 </r>
       <r>    2.0582    1.0000 </r>
       <r>    2.1154    1.0000 </r>
       <r>    2.5418    1.0000 </r>
       <r>    3.9754    1.0000 </r>
       <r>    4.1043    1.0000 </r>
       <r>    4.1653    1.0000 </r>
       <r>    4.7010    1.0000 </r>
       <r>    7.7429    0.0000 </r>
       <r>    8.2554    0.0000 </r>
       <r>    8.2820    0.0000 </r>
       <r>    8.3289    0.0000 </r>
       <r>    9.5196    0.0000 </r>
       <r>    9.6270    0.0000 </r>
       <r>    9.7464    0.0000 </r>
       <r>   10.0170    0.0000 </r>
      </set>
      <set comment="kpoint 37">
       <r>   -4.6937    1.0000 </r>
       <r>   -4.2606    1.0000 </r>
       <r>   -4.0515    1.0000 </r>
       <r>   -3.7135    1.0000 </r>
       <r>   -0.3701    1.0000 </r>
       <r>   -0.1422    1.0000 </r>
       <r>    0.1570    1.0000 </r>
       <r>    0.6799    1.0000 </r>
       <r>    1.6529    1.0000 </r>
       <r>    2.0524    1.0000 </r>
       <r>    2.1457    1.0000 </r>
       <r>    2.5285    1.0000 </r>
       <r>    3.9454    1.0000 </r>
       <r>    4.1416    1.0000 </r>
       <r>    4.2759    1.0000 </r>
       <r>    4.5757    1.0000 </r>
       <r>    7.6652    0.0000 </r>
       <r>    8.2404    0.0000 </r>
       <r>    8.3049    0.0000 </r>
       <r>    8.4108    0.0000 </r>
       <r>    9.4315    0.0000 </r>
       <r>    9.6505    0.0000 </r>
       <r>    9.8468    0.0000 </r>
       <r>    9.9609    0.0000 </r>
      </set>
      <set comment="kpoint 38">
       <r>   -5.0211    1.0000 </r>
       <r>   -4.5192    1.0000 </r>
       <r>   -3.5623    1.0000 </r>
       <r>   -3.2891    1.0000 </r>
       <r>   -0.8059    1.0000 </r>
       <r>   -0.5930    1.0000 </r>
       <r>    0.5736    1.0000 </r>
       <r>    1.2667    1.0000 </r>
       <r>    1.4744    1.0000 </r>
       <r>    1.8334    1.0000 </r>
       <r>    2.5448    1.0000 </r>
       <r>    3.0298    1.0000 </r>
       <r>    3.4648    1.0000 </r>
       <r>    3.5266    1.0000 </r>
       <r>    4.0595    1.0000 </r>
       <r>    4.6122    1.0000 </r>
       <r>    7.6488    0.0000 </r>
       <r>    8.2991    0.0000 </r>
       <r>    8.6263    0.0000 </r>
       <r>    8.7769    0.0000 </r>
       <r>    8.8400    0.0000 </r>
       <r>    9.3035    0.0000 </r>
       <r>    9.4816    0.0000 </r>
       <r>    9.8515    0.0000 </r>
[...]
       <r>   -4.0898    1.0000 </r>
       <r>   -3.6871    1.0000 </r>
       <r>   -0.4426    1.0000 </r>
       <r>   -0.0491    1.0000 </r>
       <r>    0.1700    1.0000 </r>
       <r>    0.6413    1.0000 </r>
       <r>    1.6646    1.0000 </r>
       <r>    2.0572    1.0000 </r>
       <r>    2.1550    1.0000 </r>
       <r>    2.5163    1.0000 </r>
       <r>    3.9745    1.0000 </r>
       <r>    4.0909    1.0000 </r>
       <r>    4.2164    1.0000 </r>
       <r>    4.6370    1.0000 </r>
       <r>    7.7060    0.0000 </r>
       <r>    8.2715    0.0000 </r>
       <r>    8.2968    0.0000 </r>
       <r>    8.3880    0.0000 </r>
       <r>    9.4415    0.0000 </r>
       <r>    9.6021    0.0000 </r>
       <r>    9.7970    0.0000 </r>
       <r>    9.9895    0.0000 </r>
      </set>
      <set comment="kpoint 254">
       <r>   -5.0135    1.0000 </r>
       <r>   -4.5307    1.0000 </r>
       <r>   -3.5828    1.0000 </r>
       <r>   -3.2566    1.0000 </r>
       <r>   -0.8819    1.0000 </r>
       <r>   -0.5432    1.0000 </r>
       <r>    0.6308    1.0000 </r>
       <r>    1.2225    1.0000 </r>
       <r>    1.4811    1.0000 </r>
       <r>    1.8587    1.0000 </r>
       <r>    2.5402    1.0000 </r>
       <r>    3.0223    1.0000 </r>
       <r>    3.4291    1.0000 </r>
       <r>    3.5387    1.0000 </r>
       <r>    4.0007    1.0000 </r>
       <r>    4.6794    1.0000 </r>
       <r>    7.6868    0.0000 </r>
       <r>    8.2884    0.0000 </r>
       <r>    8.6321    0.0000 </r>
       <r>    8.7708    0.0000 </r>
       <r>    8.8043    0.0000 </r>
       <r>    9.3480    0.0000 </r>
       <r>    9.4172    0.0000 </r>
       <r>    9.8351    0.0000 </r>
      </set>
      <set comment="kpoint 255">
       <r>   -5.2531    1.0000 </r>
       <r>   -4.7480    1.0000 </r>
       <r>   -2.9770    1.0000 </r>
       <r>   -2.7919    1.0000 </r>
       <r>   -1.2694    1.0000 </r>
       <r>   -1.0836    1.0000 </r>
       <r>    1.1065    1.0000 </r>
       <r>    1.4809    1.0000 </r>
       <r>    1.5476    1.0000 </r>
       <r>    2.0121    1.0000 </r>
       <r>    2.6894    1.0000 </r>
       <r>    2.7872    1.0000 </r>
       <r>    3.1355    1.0000 </r>
       <r>    3.6085    1.0000 </r>
       <r>    3.7867    1.0000 </r>
       <r>    4.3912    1.0000 </r>
       <r>    7.3333    0.0000 </r>
       <r>    7.7161    0.0000 </r>
       <r>    8.1796    0.0000 </r>
       <r>    8.9421    0.0000 </r>
       <r>    9.1050    0.0000 </r>
       <r>    9.3218    0.0000 </r>
       <r>    9.5033    0.0000 </r>
       <r>   10.0522    0.0000 </r>
      </set>
      <set comment="kpoint 256">
       <r>   -5.3753    1.0000 </r>
       <r>   -4.8605    1.0000 </r>
       <r>   -2.4414    1.0000 </r>
       <r>   -2.3519    1.0000 </r>
       <r>   -1.6639    1.0000 </r>
       <r>   -1.5286    1.0000 </r>
       <r>    1.4338    1.0000 </r>
       <r>    1.5696    1.0000 </r>
       <r>    1.6874    1.0000 </r>
       <r>    2.1720    1.0000 </r>
       <r>    2.2674    1.0000 </r>
       <r>    2.4855    1.0000 </r>
       <r>    3.4776    1.0000 </r>
       <r>    3.5512    1.0000 </r>
       <r>    3.9932    1.0000 </r>
       <r>    4.1162    1.0000 </r>
       <r>    6.7578    0.0000 </r>
       <r>    7.1150    0.0000 </r>
       <r>    8.3589    0.0000 </r>
       <r>    8.9314    0.0000 </r>
       <r>    9.0778    0.0000 </r>
       <r>    9.2276    0.0000 </r>
       <r>    9.7178    0.0000 </r>
       <r>    9.9382    0.0000 </r>
      </set>
     </set>
    </set>
   </array>
  </eigenvalues>
  <separator name="orbital magnetization" >
   <v name="MAGDIPOLOUT">      0.00000000      0.00000000      0.00000000</v>
  </separator>
  <dos>
   <i name="efermi">      5.70172627 </i>
   <total>
    <array>
     <dimension dim="1">gridpoints</dimension>
     <dimension dim="2">spin</dimension>
     <field>energy</field>
     <field>total</field>
     <field>integrated</field>
     <set>
      <set comment="spin 1">
       <r>    -6.9905     0.0000     0.0000 </r>
       <r>    -6.9304     0.0000     0.0000 </r>
       <r>    -6.8704     0.0000     0.0000 </r>
       <r>    -6.8103     0.0000     0.0000 </r>
       <r>    -6.7503     0.0000     0.0000 </r>
       <r>    -6.6902     0.0000     0.0000 </r>
       <r>    -6.6302     0.0000     0.0000 </r>
       <r>    -6.5701     0.0000     0.0000 </r>
       <r>    -6.5101     0.0000     0.0000 </r>
       <r>    -6.4500     0.0000     0.0000 </r>
       <r>    -6.3900     0.0000     0.0000 </r>
       <r>    -6.3299     0.0000     0.0000 </r>
       <r>    -6.2699     0.0000     0.0000 </r>
       <r>    -6.2099     0.0000     0.0000 </r>
       <r>    -6.1498     0.5181     0.0311 </r>
       <r>    -6.0898     0.0000     0.0313 </r>
       <r>    -6.0297     1.6272     0.1290 </r>
       <r>    -5.9697    -0.0659     0.1250 </r>
       <r>    -5.9096     0.4110     0.1497 </r>
       <r>    -5.8496     1.1503     0.2187 </r>
       <r>    -5.7895    -0.0423     0.2162 </r>
       <r>    -5.7295     2.1240     0.3437 </r>
       <r>    -5.6694     0.0073     0.3442 </r>
       <r>    -5.6094     3.1151     0.5312 </r>
       <r>    -5.5493     0.0023     0.5314 </r>
       <r>    -5.4893     1.5574     0.6249 </r>
       <r>    -5.4293    -0.0099     0.6244 </r>
       <r>    -5.3692     3.1691     0.8147 </r>
       <r>    -5.3092    -0.0405     0.8124 </r>
       <r>    -5.2491     4.3410     1.0731 </r>
       <r>    -5.1891     0.3353     1.0933 </r>
       <r>    -5.1290     1.2841     1.1704 </r>
       <r>    -5.0690     0.2841     1.1875 </r>
       <r>    -5.0089     3.0684     1.3717 </r>
       <r>    -4.9489     0.7458     1.4165 </r>
       <r>    -4.8888     2.5474     1.5695 </r>
       <r>    -4.8288     1.4414     1.6561 </r>
       <r>    -4.7687     0.5180     1.6873 </r>
       <r>    -4.7087     2.7376     1.8517 </r>
       <r>    -4.6487     3.4321     2.0580 </r>
       <r>    -4.5886     1.9238     2.1735 </r>
       <r>    -4.5286     1.9467     2.2905 </r>
       <r>    -4.4685     1.4166     2.3755 </r>
       <r>    -4.4085     3.2129     2.5685 </r>
       <r>    -4.3484     2.7241     2.7321 </r>
       <r>    -4.2884     0.7631     2.7781 </r>
       <r>    -4.2283     1.5459     2.8709 </r>
       <r>    -4.1683     3.6212     3.0884 </r>
       <r>    -4.1082     3.3631     3.2904 </r>
       <r>    -4.0482     3.7018     3.5128 </r>
       <r>    -3.9881     3.3489     3.7139 </r>
       <r>    -3.9281     3.1727     3.9044 </r>
       <r>    -3.8681     2.1695     4.0348 </r>
       <r>    -3.8080     1.7648     4.1407 </r>
       <r>    -3.7480     1.9893     4.2602 </r>
       <r>    -3.6879     4.8245     4.5499 </r>
       <r>    -3.6279     4.1134     4.7970 </r>
       <r>    -3.5678     5.3143     5.1163 </r>
       <r>    -3.5078     1.3897     5.1999 </r>
       <r>    -3.4477     2.1903     5.3315 </r>
       <r>    -3.3877     1.9320     5.4476 </r>
       <r>    -3.3276     2.4026     5.5920 </r>
       <r>    -3.2676     3.0848     5.7772 </r>
       <r>    -3.2075     5.7563     6.1230 </r>
       <r>    -3.1475     4.4147     6.3883 </r>
       <r>    -3.0875     2.5292     6.5402 </r>
       <r>    -3.0274     1.8319     6.6502 </r>
       <r>    -2.9674     2.0995     6.7764 </r>
       <r>    -2.9073     0.9925     6.8360 </r>
       <r>    -2.8473     0.6378     6.8744 </r>
       <r>    -2.7872     1.3797     6.9573 </r>
       <r>    -2.7272     2.0589     7.0810 </r>
       <r>    -2.6671     0.8737     7.1335 </r>
       <r>    -2.6071     2.5385     7.2860 </r>
       <r>    -2.5470     3.1608     7.4759 </r>
       <r>    -2.4870     2.8762     7.6487 </r>
       <r>    -2.4269     2.9311     7.8248 </r>
       <r>    -2.3669     1.6862     7.9261 </r>
       <r>    -2.3069     0.9683     7.9844 </r>
       <r>    -2.2468     0.2601     8.0000 </r>
       <r>    -2.1868     0.0000     8.0000 </r>
       <r>    -2.1267     0.0000     8.0000 </r>
       <r>    -2.0667     0.0000     8.0000 </r>
       <r>    -2.0066     0.0000     8.0000 </r>
       <r>    -1.9466     0.0000     8.0000 </r>
       <r>    -1.8865     0.0005     8.0000 </r>
       <r>    -1.8265     0.1299     8.0078 </r>
       <r>    -1.7664     0.3691     8.0300 </r>
       <r>    -1.7064     0.9626     8.0878 </r>
       <r>    -1.6463     2.6552     8.2473 </r>
       <r>    -1.5863     2.4096     8.3920 </r>
       <r>    -1.5263     3.7415     8.6167 </r>
       <r>    -1.4662     3.1293     8.8047 </r>
       <r>    -1.4062     1.7705     8.9110 </r>
       <r>    -1.3461     0.9351     8.9672 </r>
       <r>    -1.2861     1.8814     9.0803 </r>
       <r>    -1.2260     2.0887     9.2058 </r>
       <r>    -1.1660     4.4509     9.4731 </r>
       <r>    -1.1059     4.1303     9.7211 </r>
       <r>    -1.0459     4.7181    10.0045 </r>
       <r>    -0.9858     5.5946    10.3405 </r>
       <r>    -0.9258     4.6213    10.6182 </r>
       <r>    -0.8657     4.8791    10.9113 </r>
       <r>    -0.8057     5.7229    11.2551 </r>
       <r>    -0.7457     3.3456    11.4560 </r>
       <r>    -0.6856     1.7384    11.5605 </r>
       <r>    -0.6256     1.4156    11.6455 </r>
       <r>    -0.5655     3.8985    11.8796 </r>
       <r>    -0.5055     3.1620    12.0695 </r>
       <r>    -0.4454     3.2922    12.2672 </r>
       <r>    -0.3854     2.5424    12.4200 </r>
       <r>    -0.3253     2.0969    12.5459 </r>
       <r>    -0.2653     1.3147    12.6249 </r>
       <r>    -0.2052     0.4977    12.6549 </r>
       <r>    -0.1452     0.8280    12.7046 </r>
       <r>    -0.0851     1.2071    12.7771 </r>
       <r>    -0.0251     1.4471    12.8640 </r>
       <r>     0.0349     2.9571    13.0416 </r>
       <r>     0.0950     2.6734    13.2022 </r>
       <r>     0.1550     2.0073    13.3227 </r>
       <r>     0.2151     3.4129    13.5277 </r>
       <r>     0.2751     1.3620    13.6096 </r>
       <r>     0.3352     0.7773    13.6563 </r>
       <r>     0.3952     0.7144    13.6992 </r>
       <r>     0.4553     0.8445    13.7500 </r>
       <r>     0.5153     0.2763    13.7666 </r>
       <r>     0.5754     1.3734    13.8491 </r>
       <r>     0.6354     2.4835    13.9982 </r>
       <r>     0.6955     2.3867    14.1415 </r>
       <r>     0.7555     2.0710    14.2659 </r>
       <r>     0.8155     1.3019    14.3442 </r>
       <r>     0.8756    -0.0080    14.3438 </r>
       <r>     0.9356     0.0000    14.3438 </r>
       <r>     0.9957     0.3417    14.3643 </r>
       <r>     1.0557     0.8203    14.4135 </r>
       <r>     1.1158     0.9232    14.4690 </r>
       <r>     1.1758     1.3126    14.5478 </r>
       <r>     1.2359     0.8299    14.5977 </r>
       <r>     1.2959     2.1220    14.7251 </r>
       <r>     1.3560     2.1234    14.8527 </r>
       <r>     1.4160     3.6126    15.0697 </r>
       <r>     1.4761     4.4681    15.3381 </r>
       <r>     1.5361     5.0250    15.6399 </r>
       <r>     1.5961     1.4878    15.7294 </r>
       <r>     1.6562     2.9132    15.9043 </r>
       <r>     1.7162     4.3049    16.1629 </r>
       <r>     1.7763     3.8979    16.3971 </r>
       <r>     1.8363     6.3176    16.7765 </r>
       <r>     1.8964     4.9812    17.0757 </r>
       <r>     1.9564     4.4664    17.3441 </r>
       <r>     2.0165     4.6490    17.6232 </r>
       <r>     2.0765     3.7341    17.8475 </r>
       <r>     2.1366     3.4545    18.0551 </r>
       <r>     2.1966     3.9726    18.2938 </r>
       <r>     2.2567     4.9803    18.5930 </r>
       <r>     2.3167     4.9640    18.8911 </r>
       <r>     2.3767     3.6788    19.1122 </r>
       <r>     2.4368     3.6759    19.3330 </r>
       <r>     2.4968     3.0015    19.5133 </r>
       <r>     2.5569     6.5065    19.9042 </r>
       <r>     2.6169     4.8917    20.1980 </r>
       <r>     2.6770     4.9703    20.4966 </r>
       <r>     2.7370     6.7220    20.9003 </r>
       <r>     2.7971     5.5217    21.2322 </r>
       <r>     2.8571     6.2005    21.6047 </r>
       <r>     2.9172     5.9138    21.9599 </r>
       <r>     2.9772     3.5778    22.1748 </r>
       <r>     3.0373     5.5974    22.5111 </r>
       <r>     3.0973     8.5887    23.0270 </r>
       <r>     3.1573     5.9789    23.3862 </r>
       <r>     3.2174     4.7659    23.6726 </r>
       <r>     3.2774     6.8822    24.0860 </r>
       <r>     3.3375     3.8467    24.3172 </r>
       <r>     3.3975     3.4974    24.5273 </r>
       <r>     3.4576     5.6442    24.8662 </r>
       <r>     3.5176     6.9020    25.2808 </r>
       <r>     3.5777     7.8372    25.7516 </r>
       <r>     3.6377     8.0479    26.2350 </r>
       <r>     3.6978     4.2295    26.4892 </r>
       <r>     3.7578     4.8490    26.7804 </r>
       <r>     3.8179     3.3127    26.9795 </r>
       <r>     3.8779     3.0020    27.1598 </r>
       <r>     3.9379     2.9843    27.3390 </r>
       <r>     3.9980     5.6325    27.6773 </r>
       <r>     4.0580     5.7487    28.0227 </r>
       <r>     4.1181     5.6087    28.3597 </r>
       <r>     4.1781     5.2555    28.6754 </r>
       <r>     4.2382     4.7223    28.9591 </r>
       <r>     4.2982     4.6984    29.2414 </r>
       <r>     4.3583     4.8787    29.5345 </r>
       <r>     4.4183     3.0542    29.7179 </r>
       <r>     4.4784     1.5585    29.8116 </r>
       <r>     4.5384     3.7128    30.0346 </r>
       <r>     4.5985     3.4727    30.2431 </r>
       <r>     4.6585     5.7461    30.5883 </r>
       <r>     4.7185     5.3662    30.9106 </r>
       <r>     4.7786     2.2612    31.0467 </r>
       <r>     4.8386     1.2411    31.1212 </r>
       <r>     4.8987     0.7892    31.1686 </r>
       <r>     4.9587     0.7963    31.2164 </r>
       <r>     5.0188     2.1272    31.3442 </r>
       <r>     5.0788     2.7376    31.5086 </r>
       <r>     5.1389     2.1397    31.6372 </r>
       <r>     5.1989     1.0337    31.6992 </r>
       <r>     5.2590     1.3578    31.7808 </r>
       <r>     5.3190     0.4341    31.8069 </r>
       <r>     5.3791     0.7442    31.8516 </r>
       <r>     5.4391     1.0388    31.9140 </r>
       <r>     5.4991     0.2565    31.9294 </r>
       <r>     5.5592     0.7547    31.9747 </r>
       <r>     5.6192     0.0306    31.9766 </r>
       <r>     5.6793     0.1260    31.9841 </r>
       <r>     5.7393     0.2644    32.0000 </r>
       <r>     5.7994     0.0000    32.0000 </r>
       <r>     5.8594     0.0000    32.0000 </r>
       <r>     5.9195     0.0000    32.0000 </r>
       <r>     5.9795     0.0000    32.0000 </r>
       <r>     6.0396     0.0000    32.0000 </r>
       <r>     6.0996     0.0000    32.0000 </r>
       <r>     6.1597     0.0000    32.0000 </r>
       <r>     6.2197    -0.0129    31.9992 </r>
       <r>     6.2797     0.5338    32.0313 </r>
       <r>     6.3398     0.7279    32.0750 </r>
       <r>     6.3998     1.4834    32.1641 </r>
       <r>     6.4599     0.2646    32.1800 </r>
       <r>     6.5199     1.6968    32.2818 </r>
       <r>     6.5800     0.5179    32.3130 </r>
       <r>     6.6400     0.9561    32.3704 </r>
       <r>     6.7001     1.8028    32.4787 </r>
       <r>     6.7601     2.1896    32.6103 </r>
       <r>     6.8202     2.8058    32.7788 </r>
       <r>     6.8802     1.6069    32.8754 </r>
       <r>     6.9403     1.5425    32.9680 </r>
       <r>     7.0003     1.8514    33.0793 </r>
       <r>     7.0603     3.1649    33.2693 </r>
       <r>     7.1204     4.5556    33.5430 </r>
       <r>     7.1804     4.0876    33.7885 </r>
       <r>     7.2405     2.3974    33.9325 </r>
       <r>     7.3005     1.6183    34.0297 </r>
       <r>     7.3606     3.2764    34.2265 </r>
       <r>     7.4206     3.8824    34.4597 </r>
       <r>     7.4807     4.8267    34.7497 </r>
       <r>     7.5407     3.1870    34.9412 </r>
       <r>     7.6008     4.0136    35.1822 </r>
       <r>     7.6608     4.2039    35.4347 </r>
       <r>     7.7209     6.0105    35.7957 </r>
       <r>     7.7809    10.3096    36.4149 </r>
       <r>     7.8409     8.5087    36.9260 </r>
       <r>     7.9010     4.8498    37.2174 </r>
       <r>     7.9610     6.3182    37.5969 </r>
       <r>     8.0211     2.9220    37.7724 </r>
       <r>     8.0811     5.7897    38.1201 </r>
       <r>     8.1412     5.1558    38.4301 </r>
       <r>     8.2012     5.0794    38.7352 </r>
       <r>     8.2613     4.1546    38.9848 </r>
       <r>     8.3213     7.7776    39.4520 </r>
       <r>     8.3814     5.5166    39.7835 </r>
       <r>     8.4414     3.0749    39.9682 </r>
       <r>     8.5015     2.3357    40.1085 </r>
       <r>     8.5615     4.8618    40.4005 </r>
       <r>     8.6215     4.1417    40.6493 </r>
       <r>     8.6816     4.3189    40.9086 </r>
       <r>     8.7416     3.4207    41.1141 </r>
       <r>     8.8017     7.0165    41.5355 </r>
       <r>     8.8617     8.4673    42.0440 </r>
       <r>     8.9218     8.3562    42.5461 </r>
       <r>     8.9818     9.3428    43.1074 </r>
       <r>     9.0419     5.9448    43.4645 </r>
       <r>     9.1019     6.2799    43.8418 </r>
       <r>     9.1620     4.4977    44.1120 </r>
       <r>     9.2220     3.5072    44.3226 </r>
       <r>     9.2821     5.6039    44.6592 </r>
       <r>     9.3421     5.5496    44.9926 </r>
       <r>     9.4021     6.8705    45.4053 </r>
       <r>     9.4622     7.8071    45.8743 </r>
       <r>     9.5222     4.8363    46.1649 </r>
       <r>     9.5823     4.5112    46.4359 </r>
       <r>     9.6423     2.3509    46.5771 </r>
       <r>     9.7024     2.0742    46.7016 </r>
       <r>     9.7624     3.5215    46.9131 </r>
       <r>     9.8225     3.2799    47.1102 </r>
       <r>     9.8825     3.7220    47.3338 </r>
       <r>     9.9426     2.1090    47.4605 </r>
       <r>    10.0026     3.3431    47.6613 </r>
       <r>    10.0627     3.2972    47.8593 </r>
       <r>    10.1227     1.5321    47.9513 </r>
       <r>    10.1827     0.4147    47.9763 </r>
       <r>    10.2428     0.3950    48.0000 </r>
       <r>    10.3028     0.0000    48.0000 </r>
       <r>    10.3629     0.0000    48.0000 </r>
       <r>    10.4229     0.0000    48.0000 </r>
       <r>    10.4830     0.0000    48.0000 </r>
       <r>    10.5430     0.0000    48.0000 </r>
       <r>    10.6031     0.0000    48.0000 </r>
       <r>    10.6631     0.0000    48.0000 </r>
       <r>    10.7232     0.0000    48.0000 </r>
       <r>    10.7832     0.0000    48.0000 </r>
       <r>    10.8433     0.0000    48.0000 </r>
       <r>    10.9033     0.0000    48.0000 </r>
       <r>    10.9633     0.0000    48.0000 </r>
       <r>    11.0234     0.0000    48.0000 </r>
      </set>
     </set>
    </array>
   </total>
  </dos>
 </calculation>
 <structure name="finalpos" >
  <crystal>
   <varray name="basis" >
    <v>       5.46906415       0.00000000       0.00000000 </v>
    <v>       0.00000000       5.46906415       0.00000000 </v>
    <v>       0.00000000       0.00000000       5.46906415 </v>
   </varray>
   <i name="volume">    163.58333295 </i>
   <varray name="rec_basis" >
    <v>       0.18284664       0.00000000       0.00000000 </v>
    <v>       0.00000000       0.18284664       0.00000000 </v>
    <v>       0.00000000       0.00000000       0.18284664 </v>
   </varray>
  </crystal>
  <varray name="positions" >
   <v>       0.15907980       0.00400892       0.09493703 </v>
   <v>       0.40763153       0.27867315       0.34316810 </v>
   <v>       0.63898563       0.50597710       0.08347887 </v>
   <v>       0.88808689       0.75180340       0.34574910 </v>
   <v>       0.63901330       0.00640033       0.59175411 </v>
   <v>       0.90008600       0.23469403       0.83809130 </v>
   <v>       0.14400293       0.50197134       0.58709576 </v>
   <v>       0.40624538       0.75346597       0.84382984 </v>
  </varray>
 </structure>
</modeling>
