<?xml version="1.0" encoding="ISO-8859-1"?>
<modeling>
 <generator>
  <i name="program" type="string">vasp </i>
  <i name="version" type="string">5.4.1  </i>
  <i name="subversion" type="string">24Jun15 (build Jul  8 2015 13:29:37) complex                          parallel </i>
  <i name="platform" type="string">FX10FRT </i>
  <i name="date" type="string">2016 02 20 </i>
  <i name="time" type="string">07:01:50 </i>
 </generator>
 <incar>
  <i type="string" name="PREC">accurate</i>
  <i type="string" name="ALGO"> Normal</i>
  <i type="int" name="ISPIN">     1</i>
  <i type="int" name="IBRION">    -1</i>
  <i name="EDIFF">      0.00010000</i>
  <i type="int" name="NSW">     0</i>
  <i type="int" name="ISIF">     2</i>
  <i name="ENCUT">    400.00000000</i>
  <i type="int" name="ISMEAR">     2</i>
  <i name="SIGMA">      0.10000000</i>
  <i type="int" name="NWRITE">     1</i>
  <v type="int" name="KPOINT_BSE">    -1     0     0     0</v>
 </incar>
 <kpoints>
  <generation param="Monkhorst-Pack">
   <v type="int" name="divisions">      16       16       16 </v>
   <v name="usershift">      0.00000000       0.00000000       0.00000000 </v>
   <v name="genvec1">      0.06250000       0.00000000       0.00000000 </v>
   <v name="genvec2">      0.00000000       0.06250000       0.00000000 </v>
   <v name="genvec3">      0.00000000       0.00000000       0.06250000 </v>
   <v name="shift">      0.50000000       0.50000000       0.50000000 </v>
  </generation>
  <varray name="kpointlist" >
   <v>       0.03125000       0.03125000       0.03125000 </v>
   <v>       0.09375000       0.03125000       0.03125000 </v>
   <v>       0.15625000       0.03125000       0.03125000 </v>
   <v>       0.21875000       0.03125000       0.03125000 </v>
   <v>       0.28125000       0.03125000       0.03125000 </v>
   <v>       0.34375000       0.03125000       0.03125000 </v>
   <v>       0.40625000       0.03125000       0.03125000 </v>
   <v>       0.46875000       0.03125000       0.03125000 </v>
   <v>       0.09375000       0.09375000       0.03125000 </v>
   <v>       0.15625000       0.09375000       0.03125000 </v>
   <v>       0.21875000       0.09375000       0.03125000 </v>
   <v>       0.28125000       0.09375000       0.03125000 </v>
   <v>       0.34375000       0.09375000       0.03125000 </v>
   <v>       0.40625000       0.09375000       0.03125000 </v>
   <v>       0.46875000       0.09375000       0.03125000 </v>
   <v>       0.15625000       0.15625000       0.03125000 </v>
   <v>       0.21875000       0.15625000       0.03125000 </v>
   <v>       0.28125000       0.15625000       0.03125000 </v>
   <v>       0.34375000       0.15625000       0.03125000 </v>
   <v>       0.40625000       0.15625000       0.03125000 </v>
   <v>       0.46875000       0.15625000       0.03125000 </v>
   <v>       0.21875000       0.21875000       0.03125000 </v>
   <v>       0.28125000       0.21875000       0.03125000 </v>
   <v>       0.34375000       0.21875000       0.03125000 </v>
   <v>       0.40625000       0.21875000       0.03125000 </v>
   <v>       0.46875000       0.21875000       0.03125000 </v>
   <v>       0.28125000       0.28125000       0.03125000 </v>
   <v>       0.34375000       0.28125000       0.03125000 </v>
   <v>       0.40625000       0.28125000       0.03125000 </v>
   <v>       0.46875000       0.28125000       0.03125000 </v>
   <v>       0.34375000       0.34375000       0.03125000 </v>
   <v>       0.40625000       0.34375000       0.03125000 </v>
   <v>       0.46875000       0.34375000       0.03125000 </v>
   <v>       0.40625000       0.40625000       0.03125000 </v>
   <v>       0.46875000       0.40625000       0.03125000 </v>
   <v>       0.46875000       0.46875000       0.03125000 </v>
   <v>       0.09375000       0.09375000       0.09375000 </v>
   <v>       0.15625000       0.09375000       0.09375000 </v>
   <v>       0.21875000       0.09375000       0.09375000 </v>
   <v>       0.28125000       0.09375000       0.09375000 </v>
   <v>       0.34375000       0.09375000       0.09375000 </v>
   <v>       0.40625000       0.09375000       0.09375000 </v>
   <v>       0.46875000       0.09375000       0.09375000 </v>
   <v>       0.15625000       0.15625000       0.09375000 </v>
   <v>       0.21875000       0.15625000       0.09375000 </v>
   <v>       0.28125000       0.15625000       0.09375000 </v>
   <v>       0.34375000       0.15625000       0.09375000 </v>
   <v>       0.40625000       0.15625000       0.09375000 </v>
   <v>       0.46875000       0.15625000       0.09375000 </v>
   <v>       0.21875000       0.21875000       0.09375000 </v>
   <v>       0.28125000       0.21875000       0.09375000 </v>
   <v>       0.34375000       0.21875000       0.09375000 </v>
   <v>       0.40625000       0.21875000       0.09375000 </v>
   <v>       0.46875000       0.21875000       0.09375000 </v>
   <v>       0.28125000       0.28125000       0.09375000 </v>
   <v>       0.34375000       0.28125000       0.09375000 </v>
   <v>       0.40625000       0.28125000       0.09375000 </v>
   <v>       0.46875000       0.28125000       0.09375000 </v>
   <v>       0.34375000       0.34375000       0.09375000 </v>
   <v>       0.40625000       0.34375000       0.09375000 </v>
   <v>       0.46875000       0.34375000       0.09375000 </v>
   <v>       0.40625000       0.40625000       0.09375000 </v>
   <v>       0.46875000       0.40625000       0.09375000 </v>
   <v>       0.46875000       0.46875000       0.09375000 </v>
   <v>       0.15625000       0.15625000       0.15625000 </v>
   <v>       0.21875000       0.15625000       0.15625000 </v>
   <v>       0.28125000       0.15625000       0.15625000 </v>
   <v>       0.34375000       0.15625000       0.15625000 </v>
   <v>       0.40625000       0.15625000       0.15625000 </v>
   <v>       0.46875000       0.15625000       0.15625000 </v>
   <v>       0.21875000       0.21875000       0.15625000 </v>
   <v>       0.28125000       0.21875000       0.15625000 </v>
   <v>       0.34375000       0.21875000       0.15625000 </v>
   <v>       0.40625000       0.21875000       0.15625000 </v>
   <v>       0.46875000       0.21875000       0.15625000 </v>
   <v>       0.28125000       0.28125000       0.15625000 </v>
   <v>       0.34375000       0.28125000       0.15625000 </v>
   <v>       0.40625000       0.28125000       0.15625000 </v>
   <v>       0.46875000       0.28125000       0.15625000 </v>
   <v>       0.34375000       0.34375000       0.15625000 </v>
   <v>       0.40625000       0.34375000       0.15625000 </v>
   <v>       0.46875000       0.34375000       0.15625000 </v>
   <v>       0.40625000       0.40625000       0.15625000 </v>
   <v>       0.46875000       0.40625000       0.15625000 </v>
   <v>       0.46875000       0.46875000       0.15625000 </v>
   <v>       0.21875000       0.21875000       0.21875000 </v>
   <v>       0.28125000       0.21875000       0.21875000 </v>
   <v>       0.34375000       0.21875000       0.21875000 </v>
   <v>       0.40625000       0.21875000       0.21875000 </v>
   <v>       0.46875000       0.21875000       0.21875000 </v>
   <v>       0.28125000       0.28125000       0.21875000 </v>
   <v>       0.34375000       0.28125000       0.21875000 </v>
   <v>       0.40625000       0.28125000       0.21875000 </v>
   <v>       0.46875000       0.28125000       0.21875000 </v>
   <v>       0.34375000       0.34375000       0.21875000 </v>
   <v>       0.40625000       0.34375000       0.21875000 </v>
   <v>       0.46875000       0.34375000       0.21875000 </v>
   <v>       0.40625000       0.40625000       0.21875000 </v>
   <v>       0.46875000       0.40625000       0.21875000 </v>
   <v>       0.46875000       0.46875000       0.21875000 </v>
   <v>       0.28125000       0.28125000       0.28125000 </v>
   <v>       0.34375000       0.28125000       0.28125000 </v>
   <v>       0.40625000       0.28125000       0.28125000 </v>
   <v>       0.46875000       0.28125000       0.28125000 </v>
   <v>       0.34375000       0.34375000       0.28125000 </v>
   <v>       0.40625000       0.34375000       0.28125000 </v>
   <v>       0.46875000       0.34375000       0.28125000 </v>
   <v>       0.40625000       0.40625000       0.28125000 </v>
   <v>       0.46875000       0.40625000       0.28125000 </v>
   <v>       0.46875000       0.46875000       0.28125000 </v>
   <v>       0.34375000       0.34375000       0.34375000 </v>
   <v>       0.40625000       0.34375000       0.34375000 </v>
   <v>       0.46875000       0.34375000       0.34375000 </v>
   <v>       0.40625000       0.40625000       0.34375000 </v>
   <v>       0.46875000       0.40625000       0.34375000 </v>
   <v>       0.46875000       0.46875000       0.34375000 </v>
   <v>       0.40625000       0.40625000       0.40625000 </v>
   <v>       0.46875000       0.40625000       0.40625000 </v>
   <v>       0.46875000       0.46875000       0.40625000 </v>
   <v>       0.46875000       0.46875000       0.46875000 </v>
  </varray>
  <varray name="weights" >
   <v>       0.00195312 </v>
   <v>       0.00585938 </v>
   <v>       0.00585938 </v>
   <v>       0.00585938 </v>
   <v>       0.00585938 </v>
   <v>       0.00585938 </v>
   <v>       0.00585938 </v>
   <v>       0.00585938 </v>
   <v>       0.00585938 </v>
   <v>       0.01171875 </v>
   <v>       0.01171875 </v>
   <v>       0.01171875 </v>
   <v>       0.01171875 </v>
   <v>       0.01171875 </v>
   <v>       0.01171875 </v>
   <v>       0.00585938 </v>
   <v>       0.01171875 </v>
   <v>       0.01171875 </v>
   <v>       0.01171875 </v>
   <v>       0.01171875 </v>
   <v>       0.01171875 </v>
   <v>       0.00585938 </v>
   <v>       0.01171875 </v>
   <v>       0.01171875 </v>
   <v>       0.01171875 </v>
   <v>       0.01171875 </v>
   <v>       0.00585938 </v>
   <v>       0.01171875 </v>
   <v>       0.01171875 </v>
   <v>       0.01171875 </v>
   <v>       0.00585938 </v>
   <v>       0.01171875 </v>
   <v>       0.01171875 </v>
   <v>       0.00585938 </v>
   <v>       0.01171875 </v>
   <v>       0.00585938 </v>
   <v>       0.00195312 </v>
   <v>       0.00585938 </v>
   <v>       0.00585938 </v>
   <v>       0.00585938 </v>
   <v>       0.00585938 </v>
   <v>       0.00585938 </v>
   <v>       0.00585938 </v>
   <v>       0.00585938 </v>
   <v>       0.01171875 </v>
   <v>       0.01171875 </v>
   <v>       0.01171875 </v>
   <v>       0.01171875 </v>
   <v>       0.01171875 </v>
   <v>       0.00585938 </v>
   <v>       0.01171875 </v>
   <v>       0.01171875 </v>
   <v>       0.01171875 </v>
   <v>       0.01171875 </v>
   <v>       0.00585938 </v>
   <v>       0.01171875 </v>
   <v>       0.01171875 </v>
   <v>       0.01171875 </v>
   <v>       0.00585938 </v>
   <v>       0.01171875 </v>
   <v>       0.01171875 </v>
   <v>       0.00585938 </v>
   <v>       0.01171875 </v>
   <v>       0.00585938 </v>
   <v>       0.00195312 </v>
   <v>       0.00585938 </v>
   <v>       0.00585938 </v>
   <v>       0.00585938 </v>
   <v>       0.00585938 </v>
   <v>       0.00585938 </v>
   <v>       0.00585938 </v>
   <v>       0.01171875 </v>
   <v>       0.01171875 </v>
   <v>       0.01171875 </v>
   <v>       0.01171875 </v>
   <v>       0.00585938 </v>
   <v>       0.01171875 </v>
   <v>       0.01171875 </v>
   <v>       0.01171875 </v>
   <v>       0.00585938 </v>
   <v>       0.01171875 </v>
   <v>       0.01171875 </v>
   <v>       0.00585938 </v>
   <v>       0.01171875 </v>
   <v>       0.00585938 </v>
   <v>       0.00195312 </v>
   <v>       0.00585938 </v>
   <v>       0.00585938 </v>
   <v>       0.00585938 </v>
   <v>       0.00585938 </v>
   <v>       0.00585938 </v>
   <v>       0.01171875 </v>
   <v>       0.01171875 </v>
   <v>       0.01171875 </v>
   <v>       0.00585938 </v>
   <v>       0.01171875 </v>
   <v>       0.01171875 </v>
   <v>       0.00585938 </v>
   <v>       0.01171875 </v>
   <v>       0.00585938 </v>
   <v>       0.00195312 </v>
   <v>       0.00585938 </v>
   <v>       0.00585938 </v>
   <v>       0.00585938 </v>
   <v>       0.00585938 </v>
   <v>       0.01171875 </v>
   <v>       0.01171875 </v>
   <v>       0.00585938 </v>
   <v>       0.01171875 </v>
   <v>       0.00585938 </v>
   <v>       0.00195312 </v>
   <v>       0.00585938 </v>
   <v>       0.00585938 </v>
   <v>       0.00585938 </v>
   <v>       0.01171875 </v>
   <v>       0.00585938 </v>
   <v>       0.00195312 </v>
   <v>       0.00585938 </v>
   <v>       0.00585938 </v>
   <v>       0.00195312 </v>
  </varray>
 </kpoints>
 <parameters>
  <separator name="general" >
   <i type="string" name="SYSTEM">unknown system</i>
   <i type="logical" name="LCOMPAT"> F  </i>
  </separator>
  <separator name="electronic" >
   <i type="string" name="PREC">accura</i>
   <i name="ENMAX">    400.00000000</i>
   <i name="ENAUG">    322.06900000</i>
   <i name="EDIFF">      0.00010000</i>
   <i type="int" name="IALGO">    38</i>
   <i type="int" name="IWAVPR">    10</i>
   <i type="int" name="NBANDS">     8</i>
   <i name="NELECT">      8.00000000</i>
   <i type="int" name="TURBO">     0</i>
   <i type="int" name="IRESTART">     0</i>
   <i type="int" name="NREBOOT">     0</i>
   <i type="int" name="NMIN">     0</i>
   <i name="EREF">      0.00000000</i>
   <separator name="electronic smearing" >
    <i type="int" name="ISMEAR">     2</i>
    <i name="SIGMA">      0.10000000</i>
    <i name="KSPACING">      0.50000000</i>
    <i type="logical" name="KGAMMA"> T  </i>
   </separator>
   <separator name="electronic projectors" >
    <i type="logical" name="LREAL"> F  </i>
    <v name="ROPT">      0.00000000</v>
    <i type="int" name="LMAXPAW">  -100</i>
    <i type="int" name="LMAXMIX">     2</i>
    <i type="logical" name="NLSPLINE"> F  </i>
   </separator>
   <separator name="electronic startup" >
    <i type="int" name="ISTART">     0</i>
    <i type="int" name="ICHARG">     2</i>
    <i type="int" name="INIWAV">     1</i>
   </separator>
   <separator name="electronic spin" >
    <i type="int" name="ISPIN">     1</i>
    <i type="logical" name="LNONCOLLINEAR"> F  </i>
    <v name="MAGMOM">      1.00000000      1.00000000</v>
    <i name="NUPDOWN">     -1.00000000</i>
    <i type="logical" name="LSORBIT"> F  </i>
    <v name="SAXIS">      0.00000000      0.00000000      1.00000000</v>
    <i type="logical" name="LSPIRAL"> F  </i>
    <v name="QSPIRAL">      0.00000000      0.00000000      0.00000000</v>
    <i type="logical" name="LZEROZ"> F  </i>
   </separator>
   <separator name="electronic exchange-correlation" >
    <i type="logical" name="LASPH"> F  </i>
    <i type="logical" name="LMETAGGA"> F  </i>
   </separator>
   <separator name="electronic convergence" >
    <i type="int" name="NELM">    60</i>
    <i type="int" name="NELMDL">    -5</i>
    <i type="int" name="NELMIN">     2</i>
    <i name="ENINI">    400.00000000</i>
    <separator name="electronic convergence detail" >
     <i type="logical" name="LDIAG"> T  </i>
     <i type="logical" name="LSUBROT"> F  </i>
     <i name="WEIMIN">      0.00000000</i>
     <i name="EBREAK">      0.00000313</i>
     <i name="DEPER">      0.30000000</i>
     <i type="int" name="NRMM">     4</i>
     <i name="TIME">      0.40000000</i>
    </separator>
   </separator>
   <separator name="electronic mixer" >
    <i name="AMIX">      0.40000000</i>
    <i name="BMIX">      1.00000000</i>
    <i name="AMIN">      0.10000000</i>
    <i name="AMIX_MAG">      1.60000000</i>
    <i name="BMIX_MAG">      1.00000000</i>
    <separator name="electronic mixer details" >
     <i type="int" name="IMIX">     4</i>
     <i type="logical" name="MIXFIRST"> F  </i>
     <i type="int" name="MAXMIX">   -45</i>
     <i name="WC">    100.00000000</i>
     <i type="int" name="INIMIX">     1</i>
     <i type="int" name="MIXPRE">     1</i>
     <i type="int" name="MREMOVE">     5</i>
    </separator>
   </separator>
   <separator name="electronic dipolcorrection" >
    <i type="logical" name="LDIPOL"> F  </i>
    <i type="logical" name="LMONO"> F  </i>
    <i type="int" name="IDIPOL">     0</i>
    <i name="EPSILON">      1.00000000</i>
    <v name="DIPOL">   -100.00000000   -100.00000000   -100.00000000</v>
    <i name="EFIELD">      0.00000000</i>
   </separator>
  </separator>
  <separator name="grids" >
   <i type="int" name="NGX">    24</i>
   <i type="int" name="NGY">    24</i>
   <i type="int" name="NGZ">    24</i>
   <i type="int" name="NGXF">    48</i>
   <i type="int" name="NGYF">    48</i>
   <i type="int" name="NGZF">    48</i>
   <i type="logical" name="ADDGRID"> F  </i>
  </separator>
  <separator name="ionic" >
   <i type="int" name="NSW">     0</i>
   <i type="int" name="IBRION">    -1</i>
   <i type="int" name="ISIF">     2</i>
   <i name="PSTRESS">      0.00000000</i>
   <i name="EDIFFG">      0.00100000</i>
   <i type="int" name="NFREE">     0</i>
   <i name="POTIM">      0.50000000</i>
   <i name="SMASS">     -3.00000000</i>
   <i name="SCALEE">      1.00000000</i>
  </separator>
  <separator name="ionic md" >
   <i name="TEBEG">      0.00010000</i>
   <i name="TEEND">      0.00010000</i>
   <i type="int" name="NBLOCK">     1</i>
   <i type="int" name="KBLOCK">     1</i>
   <i type="int" name="NPACO">   256</i>
   <i name="APACO">     16.00000000</i>
  </separator>
  <separator name="symmetry" >
   <i type="int" name="ISYM">     2</i>
   <i name="SYMPREC">      0.00001000</i>
  </separator>
  <separator name="dos" >
   <i type="logical" name="LORBIT"> F  </i>
   <v name="RWIGS">     -1.00000000</v>
   <i type="int" name="NEDOS">   301</i>
   <i name="EMIN">     10.00000000</i>
   <i name="EMAX">    -10.00000000</i>
   <i name="EFERMI">      0.00000000</i>
  </separator>
  <separator name="writing" >
   <i type="int" name="NWRITE">     1</i>
   <i type="logical" name="LWAVE"> T  </i>
   <i type="logical" name="LCHARG"> T  </i>
   <i type="logical" name="LPARD"> F  </i>
   <i type="logical" name="LVTOT"> F  </i>
   <i type="logical" name="LVHAR"> F  </i>
   <i type="logical" name="LELF"> F  </i>
   <i type="logical" name="LOPTICS"> F  </i>
   <v name="STM">      0.00000000      0.00000000      0.00000000      0.00000000      0.00000000      0.00000000      0.00000000</v>
  </separator>
  <separator name="performance" >
   <i type="int" name="NPAR">     8</i>
   <i type="int" name="NSIM">     4</i>
   <i type="int" name="NBLK">    -1</i>
   <i type="logical" name="LPLANE"> T  </i>
   <i type="logical" name="LSCALAPACK"> T  </i>
   <i type="logical" name="LSCAAWARE"> F  </i>
   <i type="logical" name="LSCALU"> F  </i>
   <i type="logical" name="LASYNC"> F  </i>
   <i type="logical" name="LORBITALREAL"> F  </i>
  </separator>
  <separator name="miscellaneous" >
   <i type="int" name="IDIOT">     3</i>
   <i type="logical" name="LMUSIC"> F  </i>
   <v name="POMASS">     28.08500000</v>
   <v name="DARWINR">      0.00000000</v>
   <v name="DARWINV">      1.00000000</v>
   <i type="logical" name="LCORR"> T  </i>
  </separator>
  <i type="logical" name="GGA_COMPAT"> T  </i>
  <i type="logical" name="LBERRY"> F  </i>
  <i type="int" name="ICORELEVEL">     0</i>
  <i type="logical" name="LDAU"> F  </i>
  <i type="int" name="I_CONSTRAINED_M">     0</i>
  <separator name="electronic exchange-correlation" >
   <i type="string" name="GGA">--</i>
   <i type="int" name="VOSKOWN">     0</i>
   <i type="logical" name="LHFCALC"> F  </i>
   <i type="string" name="PRECFOCK"></i>
   <i type="logical" name="LSYMGRAD"> F  </i>
   <i type="logical" name="LHFONE"> F  </i>
   <i type="logical" name="LRHFCALC"> F  </i>
   <i type="logical" name="LTHOMAS"> F  </i>
   <i type="logical" name="LMODELHF"> F  </i>
   <i name="ENCUT4O">     -1.00000000</i>
   <i type="int" name="EXXOEP">     0</i>
   <i type="int" name="FOURORBIT">     0</i>
   <i name="AEXX">      0.00000000</i>
   <i name="HFALPHA">      0.00000000</i>
   <i name="MCALPHA">      0.00000000</i>
   <i name="ALDAX">      1.00000000</i>
   <i name="AGGAX">      1.00000000</i>
   <i name="ALDAC">      1.00000000</i>
   <i name="AGGAC">      1.00000000</i>
   <i type="int" name="NKREDX">     1</i>
   <i type="int" name="NKREDY">     1</i>
   <i type="int" name="NKREDZ">     1</i>
   <i type="logical" name="SHIFTRED"> F  </i>
   <i type="logical" name="ODDONLY"> F  </i>
   <i type="logical" name="EVENONLY"> F  </i>
   <i type="int" name="LMAXFOCK">     0</i>
   <i type="int" name="NMAXFOCKAE">     0</i>
   <i type="logical" name="LFOCKAEDFT"> F  </i>
   <i name="HFSCREEN">      0.00000000</i>
   <i name="HFSCREENC">      0.00000000</i>
   <i type="int" name="NBANDSGWLOW">     0</i>
  </separator>
  <separator name="vdW DFT" >
   <i type="logical" name="LUSE_VDW"> F  </i>
   <i name="Zab_VDW">     -0.84910000</i>
   <i name="PARAM1">      0.12340000</i>
   <i name="PARAM2">      1.00000000</i>
   <i name="PARAM3">      0.00000000</i>
  </separator>
  <separator name="model GW" >
   <i type="int" name="MODEL_GW">     0</i>
   <i name="MODEL_EPS0">      9.37435408</i>
   <i name="MODEL_ALPHA">      1.00000000</i>
  </separator>
  <separator name="linear response parameters" >
   <i type="logical" name="LEPSILON"> F  </i>
   <i type="logical" name="LRPA"> F  </i>
   <i type="logical" name="LNABLA"> F  </i>
   <i type="logical" name="LVEL"> F  </i>
   <i type="int" name="KINTER">     0</i>
   <i name="CSHIFT">      0.10000000</i>
   <i name="OMEGAMAX">     -1.00000000</i>
   <i name="DEG_THRESHOLD">      0.00200000</i>
  </separator>
  <separator name="orbital magnetization" >
   <i type="logical" name="NUCIND"> F  </i>
   <v name="MAGPOS">      0.00000000      0.00000000      0.00000000</v>
   <i type="logical" name="LNICSALL"> T  </i>
   <i type="logical" name="ORBITALMAG"> F  </i>
   <i type="logical" name="LMAGBLOCH"> F  </i>
   <i type="logical" name="LCHIMAG"> F  </i>
   <i type="logical" name="LGAUGE"> T  </i>
   <i type="int" name="MAGATOM">     0</i>
   <v name="MAGDIPOL">      0.00000000      0.00000000      0.00000000</v>
   <v name="AVECCONST">      0.00000000      0.00000000      0.00000000</v>
  </separator>
  <separator name="response functions" >
   <i type="logical" name="LADDER"> F  </i>
   <i type="logical" name="LFXC"> F  </i>
   <i type="logical" name="LHARTREE"> T  </i>
   <i type="int" name="IBSE">     0</i>
   <v type="int" name="KPOINT">    -1     0     0     0</v>
   <i type="logical" name="LTCTE"> F  </i>
   <i type="logical" name="LTETE"> F  </i>
   <i type="logical" name="LTRIPLET"> F  </i>
   <i type="logical" name="LFXCEPS"> F  </i>
   <i type="logical" name="LFXHEG"> F  </i>
   <i type="int" name="NATURALO">     0</i>
   <i type="logical" name="L2ORDER"> F  </i>
   <i type="logical" name="LUSEW"> F  </i>
   <i name="ENCUTGW">     -2.00000000</i>
   <i name="ENCUTGWSOFT">     -2.00000000</i>
   <i name="ENCUTLF">     -1.00000000</i>
   <i type="int" name="LMAXMP2">    -1</i>
   <i name="SCISSOR">      0.00000000</i>
   <i type="int" name="NOMEGA">     0</i>
   <i type="int" name="NOMEGAR">     0</i>
   <i type="int" name="NBANDSGW">    -1</i>
   <i type="int" name="NBANDSO">    -1</i>
   <i type="int" name="NBANDSV">    -1</i>
   <i type="int" name="NELM">     1</i>
   <i type="int" name="NELMHF">     1</i>
   <i type="int" name="DIM">     3</i>
   <i type="int" name="ANTIRES">     0</i>
   <i name="OMEGAMAX">    -30.00000000</i>
   <i name="OMEGAMIN">    -30.00000000</i>
   <i name="OMEGATL">   -200.00000000</i>
   <i type="int" name="OMEGAGRID">     0</i>
   <i name="CSHIFT">     -0.10000000</i>
   <i type="logical" name="SELFENERGY"> F  </i>
   <i type="logical" name="LSPECTRAL"> F  </i>
   <i type="logical" name="LSPECTRALGW"> F  </i>
   <i type="logical" name="LSINGLES"> F  </i>
   <i type="logical" name="LFERMIGW"> F  </i>
   <i type="logical" name="ODDONLYGW"> F  </i>
   <i type="logical" name="EVENONLYGW"> F  </i>
   <i type="int" name="NKREDLFX">     1</i>
   <i type="int" name="NKREDLFY">     1</i>
   <i type="int" name="NKREDLFZ">     1</i>
   <i type="int" name="MAXMEM">  1800</i>
   <i type="int" name="TELESCOPE">     0</i>
   <i type="int" name="TAUPAR">     1</i>
   <i type="int" name="OMEGAPAR">    -1</i>
   <i name="LAMBDA">      1.00000000</i>
  </separator>
  <separator name="External order field" >
   <i name="OFIELD_KAPPA">      0.00000000</i>
   <v name="OFIELD_K">      0.00000000      0.00000000      0.00000000</v>
   <i name="OFIELD_Q6_NEAR">      0.00000000</i>
   <i name="OFIELD_Q6_FAR">      0.00000000</i>
   <i name="OFIELD_A">      0.00000000</i>
  </separator>
 </parameters>
 <atominfo>
  <atoms>       2 </atoms>
  <types>       1 </types>
  <array name="atoms" >
   <dimension dim="1">ion</dimension>
   <field type="string">element</field>
   <field type="int">atomtype</field>
   <set>
    <rc><c>Si</c><c>   1</c></rc>
    <rc><c>Si</c><c>   1</c></rc>
   </set>
  </array>
  <array name="atomtypes" >
   <dimension dim="1">type</dimension>
   <field type="int">atomspertype</field>
   <field type="string">element</field>
   <field>mass</field>
   <field>valence</field>
   <field type="string">pseudopotential</field>
   <set>
    <rc><c>   2</c><c>Si</c><c>     28.08500000</c><c>      4.00000000</c><c>  PAW_PBE Si 05Jan2001                  </c></rc>
   </set>
  </array>
 </atominfo>
 <structure name="initialpos" >
  <crystal>
   <varray name="basis" >
    <v>       3.14973028       0.00000000       0.00000000 </v>
    <v>       0.00000000       3.14973028       0.00000000 </v>
    <v>       0.00000000       0.00000000       3.14973028 </v>
   </varray>
   <i name="volume">     31.24784692 </i>
   <varray name="rec_basis" >
    <v>       0.31748750       0.00000000       0.00000000 </v>
    <v>       0.00000000       0.31748750       0.00000000 </v>
    <v>       0.00000000       0.00000000       0.31748750 </v>
   </varray>
  </crystal>
  <varray name="positions" >
   <v>       0.00000000       0.00000000       0.00000000 </v>
   <v>       0.50000000       0.50000000       0.50000000 </v>
  </varray>
 </structure>
 <calculation>
  <scstep>
   <time name="dav">    0.39    0.42</time>
   <time name="total">    0.45    0.48</time>
   <energy>
    <i name="alphaZ">      4.30917764 </i>
    <i name="ewald">   -266.20279295 </i>
    <i name="hartreedc">     -1.50220612 </i>
    <i name="XCdc">    -18.01325887 </i>
    <i name="pawpsdc">    176.24759923 </i>
    <i name="pawaedc">   -141.06103558 </i>
    <i name="eentropy">     -0.00050072 </i>
    <i name="bandstr">     42.27051313 </i>
    <i name="atom">    206.13149246 </i>
    <i name="e_fr_energy">      2.17898821 </i>
    <i name="e_wo_entrp">      2.17948893 </i>
    <i name="e_0_energy">      2.17911339 </i>
   </energy>
  </scstep>
  <scstep>
   <time name="dav">    0.55    0.56</time>
   <time name="total">    0.57    0.59</time>
   <energy>
    <i name="e_fr_energy">     -9.65224496 </i>
    <i name="e_wo_entrp">     -9.65229633 </i>
    <i name="e_0_energy">     -9.65225781 </i>
   </energy>
  </scstep>
  <scstep>
   <time name="dav">    0.54    0.55</time>
   <time name="total">    0.55    0.56</time>
   <energy>
    <i name="e_fr_energy">     -9.79748363 </i>
    <i name="e_wo_entrp">     -9.79795325 </i>
    <i name="e_0_energy">     -9.79760104 </i>
   </energy>
  </scstep>
  <scstep>
   <time name="dav">    0.53    0.53</time>
   <time name="total">    0.54    0.55</time>
   <energy>
    <i name="e_fr_energy">     -9.79783567 </i>
    <i name="e_wo_entrp">     -9.79830464 </i>
    <i name="e_0_energy">     -9.79795291 </i>
   </energy>
  </scstep>
  <scstep>
   <time name="dav">    0.54    0.55</time>
   <time name="total">    0.58    0.61</time>
   <energy>
    <i name="e_fr_energy">     -9.79783686 </i>
    <i name="e_wo_entrp">     -9.79830581 </i>
    <i name="e_0_energy">     -9.79795409 </i>
   </energy>
  </scstep>
  <scstep>
   <time name="dav">    0.46    0.46</time>
   <time name="total">    0.49    0.51</time>
   <energy>
    <i name="e_fr_energy">     -9.77773698 </i>
    <i name="e_wo_entrp">     -9.77817852 </i>
    <i name="e_0_energy">     -9.77784737 </i>
   </energy>
  </scstep>
  <scstep>
   <time name="dav">    0.45    0.45</time>
   <time name="total">    0.49    0.50</time>
   <energy>
    <i name="e_fr_energy">     -9.76666545 </i>
    <i name="e_wo_entrp">     -9.76702448 </i>
    <i name="e_0_energy">     -9.76675520 </i>
   </energy>
  </scstep>
  <scstep>
   <time name="dav">    0.55    0.56</time>
   <time name="total">    0.58    0.59</time>
   <energy>
    <i name="alphaZ">      4.30917764 </i>
    <i name="ewald">   -266.20279295 </i>
    <i name="hartreedc">     -1.09747997 </i>
    <i name="XCdc">    -17.93818064 </i>
    <i name="pawpsdc">    512.86867439 </i>
    <i name="pawaedc">   -477.68651477 </i>
    <i name="eentropy">      0.00035566 </i>
    <i name="bandstr">     29.84863676 </i>
    <i name="atom">    206.13149246 </i>
    <i name="e_fr_energy">     -9.76663141 </i>
    <i name="e_wo_entrp">     -9.76698707 </i>
    <i name="e_0_energy">     -9.76672032 </i>
   </energy>
  </scstep>
  <structure>
   <crystal>
    <varray name="basis" >
     <v>       3.14973028       0.00000000       0.00000000 </v>
     <v>       0.00000000       3.14973028       0.00000000 </v>
     <v>       0.00000000       0.00000000       3.14973028 </v>
    </varray>
    <i name="volume">     31.24784692 </i>
    <varray name="rec_basis" >
     <v>       0.31748750       0.00000000       0.00000000 </v>
     <v>       0.00000000       0.31748750       0.00000000 </v>
     <v>       0.00000000       0.00000000       0.31748750 </v>
    </varray>
   </crystal>
   <varray name="positions" >
    <v>       0.00000000       0.00000000       0.00000000 </v>
    <v>       0.50000000       0.50000000       0.50000000 </v>
   </varray>
  </structure>
  <varray name="forces" >
   <v>       0.00000000       0.00000000       0.00000000 </v>
   <v>       0.00000000       0.00000000       0.00000000 </v>
  </varray>
  <varray name="stress" >
   <v>     -53.75676024       0.00000000       0.00000000 </v>
   <v>       0.00000000     -53.75676024       0.00000000 </v>
   <v>       0.00000000       0.00000000     -53.75676024 </v>
  </varray>
  <energy>
   <i name="e_fr_energy">     -9.76663141 </i>
   <i name="e_wo_entrp">     -9.76672032 </i>
   <i name="e_0_energy">      0.00035566 </i>
  </energy>
  <time name="totalsc">    4.89    5.07</time>
  <eigenvalues>
   <array>
    <dimension dim="1">band</dimension>
    <dimension dim="2">kpoint</dimension>
    <dimension dim="3">spin</dimension>
    <field>eigene</field>
    <field>occ</field>
    <set>
     <set comment="spin 1">
      <set comment="kpoint 1">
       <r>   -4.5243    1.0000 </r>
       <r>    8.1357    1.0000 </r>
       <r>    8.3992    1.0000 </r>
       <r>    8.3992    1.0000 </r>
       <r>   10.0695    0.0000 </r>
       <r>   11.9210    0.0000 </r>
       <r>   11.9210    0.0000 </r>
       <r>   19.0349    0.0000 </r>
      </set>
      <set comment="kpoint 2">
       <r>   -4.4100    1.0000 </r>
       <r>    6.9652    1.0000 </r>
       <r>    8.3762    1.0000 </r>
       <r>    8.5032    1.0000 </r>
       <r>   10.5200    0.0000 </r>
       <r>   12.0358    0.0000 </r>
       <r>   13.0584    0.0000 </r>
       <r>   18.1997    0.0000 </r>
      </set>
      <set comment="kpoint 3">
       <r>   -4.1817    1.0000 </r>
       <r>    5.5469    1.0000 </r>
       <r>    8.5792    1.0000 </r>
       <r>    8.7110    1.0000 </r>
       <r>   10.8358    0.0000 </r>
       <r>   12.2652    0.0000 </r>
       <r>   14.7441    0.0000 </r>
       <r>   17.1376    0.0000 </r>
      </set>
      <set comment="kpoint 4">
       <r>   -3.8398    1.0000 </r>
       <r>    4.1675    1.0000 </r>
       <r>    8.8899    1.0006 </r>
       <r>    9.0224    0.8447 </r>
       <r>   11.1848    0.0000 </r>
       <r>   12.6094    0.0000 </r>
       <r>   16.0138    0.0000 </r>
       <r>   16.2150    0.0000 </r>
      </set>
      <set comment="kpoint 5">
       <r>   -3.3847    1.0000 </r>
       <r>    2.8670    1.0000 </r>
       <r>    9.3042    0.0023 </r>
       <r>    9.4370    0.0000 </r>
       <r>   11.6138    0.0000 </r>
       <r>   13.0680    0.0000 </r>
       <r>   14.9051    0.0000 </r>
       <r>   15.0811    0.0000 </r>
      </set>
      <set comment="kpoint 6">
       <r>   -2.8173    1.0000 </r>
       <r>    1.6594    1.0000 </r>
       <r>    9.8206    0.0000 </r>
       <r>    9.9538    0.0000 </r>
       <r>   12.1322    0.0000 </r>
       <r>   13.6405    0.0000 </r>
       <r>   13.8485    0.0000 </r>
       <r>   14.0082    0.0000 </r>
      </set>
      <set comment="kpoint 7">
       <r>   -2.1385    1.0000 </r>
       <r>    0.5516    1.0000 </r>
       <r>   10.4375    0.0000 </r>
       <r>   10.5719    0.0000 </r>
       <r>   12.7400    0.0000 </r>
       <r>   12.8639    0.0000 </r>
       <r>   13.0126    0.0000 </r>
       <r>   14.3264    0.0000 </r>
      </set>
      <set comment="kpoint 8">
       <r>   -1.3497    1.0000 </r>
       <r>   -0.4523    1.0000 </r>
       <r>   11.1526    0.0000 </r>
       <r>   11.2896    0.0000 </r>
       <r>   11.9630    0.0000 </r>
       <r>   12.1044    0.0000 </r>
       <r>   13.4328    0.0000 </r>
       <r>   14.2038    0.0000 </r>
      </set>
      <set comment="kpoint 9">
       <r>   -4.2959    1.0000 </r>
       <r>    6.8743    1.0000 </r>
       <r>    7.3325    1.0000 </r>
       <r>    8.5572    1.0000 </r>
       <r>   11.0470    0.0000 </r>
       <r>   12.8435    0.0000 </r>
       <r>   13.4161    0.0000 </r>
       <r>   17.3043    0.0000 </r>
      </set>
      <set comment="kpoint 10">
       <r>   -4.0677    1.0000 </r>
       <r>    5.6381    1.0000 </r>
       <r>    7.3584    1.0000 </r>
       <r>    8.7640    0.9996 </r>
       <r>   11.3809    0.0000 </r>
       <r>   13.2561    0.0000 </r>
       <r>   14.8940    0.0000 </r>
       <r>   16.1615    0.0000 </r>
      </set>
      <set comment="kpoint 11">
       <r>   -3.7259    1.0000 </r>
       <r>    4.2713    1.0000 </r>
       <r>    7.6635    1.0000 </r>
       <r>    9.0752    0.3263 </r>
       <r>   11.7355    0.0000 </r>
       <r>   13.6106    0.0000 </r>
       <r>   14.9793    0.0000 </r>
       <r>   16.1955    0.0000 </r>
      </set>
      <set comment="kpoint 12">
       <r>   -3.2711    1.0000 </r>
       <r>    2.9745    1.0000 </r>
       <r>    8.0836    1.0000 </r>
       <r>    9.4896    0.0000 </r>
       <r>   12.1692    0.0000 </r>
       <r>   13.8274    0.0000 </r>
       <r>   14.0583    0.0000 </r>
       <r>   15.0975    0.0000 </r>
      </set>
      <set comment="kpoint 13">
       <r>   -2.7041    1.0000 </r>
       <r>    1.7689    1.0000 </r>
       <r>    8.6104    1.0000 </r>
       <r>   10.0060    0.0000 </r>
       <r>   12.6929    0.0000 </r>
       <r>   12.7373    0.0000 </r>
       <r>   14.0412    0.0000 </r>
       <r>   14.6104    0.0000 </r>
      </set>
      <set comment="kpoint 14">
       <r>   -2.0258    1.0000 </r>
       <r>    0.6623    1.0000 </r>
       <r>    9.2408    0.0033 </r>
       <r>   10.6233    0.0000 </r>
       <r>   11.7257    0.0000 </r>
       <r>   13.0546    0.0000 </r>
       <r>   13.3065    0.0000 </r>
       <r>   15.2686    0.0000 </r>
      </set>
      <set comment="kpoint 15">
       <r>   -1.2375    1.0000 </r>
       <r>   -0.3408    1.0000 </r>
       <r>    9.9722    0.0000 </r>
       <r>   10.8019    0.0000 </r>
       <r>   11.3394    0.0000 </r>
       <r>   12.1514    0.0000 </r>
       <r>   14.0050    0.0000 </r>
       <r>   14.7797    0.0000 </r>
      </set>
      <set comment="kpoint 16">
       <r>   -3.8398    1.0000 </r>
       <r>    5.6263    1.0000 </r>
       <r>    6.1635    1.0000 </r>
       <r>    8.9704    1.0493 </r>
       <r>   11.7156    0.0000 </r>
       <r>   14.5884    0.0000 </r>
       <r>   14.9428    0.0000 </r>
       <r>   15.4411    0.0000 </r>
      </set>
      <set comment="kpoint 17">
       <r>   -3.4985    1.0000 </r>
       <r>    4.4681    1.0000 </r>
       <r>    6.2653    1.0000 </r>
       <r>    9.2811    0.0040 </r>
       <r>   12.0719    0.0000 </r>
       <r>   13.7098    0.0000 </r>
       <r>   15.1922    0.0000 </r>
       <r>   16.2071    0.0000 </r>
      </set>
      <set comment="kpoint 18">
       <r>   -3.0443    1.0000 </r>
       <r>    3.1873    1.0000 </r>
       <r>    6.6768    1.0000 </r>
       <r>    9.6947    0.0000 </r>
       <r>   12.5095    0.0000 </r>
       <r>   12.5221    0.0000 </r>
       <r>   15.2208    0.0000 </r>
       <r>   15.6564    0.0000 </r>
      </set>
      <set comment="kpoint 19">
       <r>   -2.4779    1.0000 </r>
       <r>    1.9868    1.0000 </r>
       <r>    7.2072    1.0000 </r>
       <r>   10.2100    0.0000 </r>
       <r>   11.4050    0.0000 </r>
       <r>   13.0389    0.0000 </r>
       <r>   14.2069    0.0000 </r>
       <r>   16.1898    0.0000 </r>
      </set>
      <set comment="kpoint 20">
       <r>   -1.8006    1.0000 </r>
       <r>    0.8831    1.0000 </r>
       <r>    7.8455    1.0000 </r>
       <r>   10.3721    0.0000 </r>
       <r>   10.8254    0.0000 </r>
       <r>   13.2391    0.0000 </r>
       <r>   13.6598    0.0000 </r>
       <r>   15.9858    0.0000 </r>
      </set>
      <set comment="kpoint 21">
       <r>   -1.0134    1.0000 </r>
       <r>   -0.1181    1.0000 </r>
       <r>    8.5880    1.0000 </r>
       <r>    9.4314    0.0000 </r>
       <r>   11.5385    0.0000 </r>
       <r>   12.3453    0.0000 </r>
       <r>   14.3667    0.0000 </r>
       <r>   15.1486    0.0000 </r>
      </set>
      <set comment="kpoint 22">
       <r>   -3.1578    1.0000 </r>
       <r>    4.5515    1.0000 </r>
       <r>    5.1314    1.0000 </r>
       <r>    9.5910    0.0000 </r>
       <r>   12.4283    0.0000 </r>
       <r>   12.4417    0.0000 </r>
       <r>   15.9921    0.0000 </r>
       <r>   16.6432    0.0000 </r>
      </set>
      <set comment="kpoint 23">
       <r>   -2.7044    1.0000 </r>
       <r>    3.4926    1.0000 </r>
       <r>    5.3275    1.0000 </r>
       <r>   10.0034    0.0000 </r>
       <r>   11.2281    0.0000 </r>
       <r>   12.8655    0.0000 </r>
       <r>   15.3312    0.0000 </r>
       <r>   17.3646    0.0000 </r>
      </set>
      <set comment="kpoint 24">
       <r>   -2.1392    1.0000 </r>
       <r>    2.3103    1.0000 </r>
       <r>    5.8475    1.0000 </r>
       <r>   10.0916    0.0000 </r>
       <r>   10.5167    0.0000 </r>
       <r>   13.3941    0.0000 </r>
       <r>   14.4322    0.0000 </r>
       <r>   17.0123    0.0000 </r>
      </set>
      <set comment="kpoint 25">
       <r>   -1.4632    1.0000 </r>
       <r>    1.2128    1.0000 </r>
       <r>    6.4885    1.0000 </r>
       <r>    9.0435    0.6554 </r>
       <r>   11.1289    0.0000 </r>
       <r>   13.5078    0.0000 </r>
       <r>   14.0129    0.0000 </r>
       <r>   16.2841    0.0000 </r>
      </set>
      <set comment="kpoint 26">
       <r>   -0.6778    1.0000 </r>
       <r>    0.2151    1.0000 </r>
       <r>    7.2377    1.0000 </r>
       <r>    8.0906    1.0000 </r>
       <r>   11.8365    0.0000 </r>
       <r>   12.6335    0.0000 </r>
       <r>   14.7148    0.0000 </r>
       <r>   15.4840    0.0000 </r>
      </set>
      <set comment="kpoint 27">
       <r>   -2.2522    1.0000 </r>
       <r>    3.6766    1.0000 </r>
       <r>    4.2876    1.0000 </r>
       <r>    9.9956    0.0000 </r>
       <r>   10.4137    0.0000 </r>
       <r>   13.2999    0.0000 </r>
       <r>   15.2157    0.0000 </r>
       <r>   17.0216    0.0000 </r>
      </set>
      <set comment="kpoint 28">
       <r>   -1.6886    1.0000 </r>
       <r>    2.7256    1.0000 </r>
       <r>    4.5838    1.0000 </r>
       <r>    8.8445    0.9954 </r>
       <r>   10.9236    0.0000 </r>
       <r>   13.8233    0.0000 </r>
       <r>   14.6463    0.0000 </r>
       <r>   16.8464    0.0000 </r>
      </set>
      <set comment="kpoint 29">
       <r>   -1.0146    1.0000 </r>
       <r>    1.6479    1.0000 </r>
       <r>    5.2130    1.0000 </r>
       <r>    7.7850    1.0000 </r>
       <r>   11.5303    0.0000 </r>
       <r>   13.8368    0.0000 </r>
       <r>   14.4329    0.0000 </r>
       <r>   16.5092    0.0000 </r>
      </set>
      <set comment="kpoint 30">
       <r>   -0.2319    1.0000 </r>
       <r>    0.6571    1.0000 </r>
       <r>    5.9642    1.0000 </r>
       <r>    6.8233    1.0000 </r>
       <r>   12.2280    0.0000 </r>
       <r>   13.0056    0.0000 </r>
       <r>   15.1166    0.0000 </r>
       <r>   15.8429    0.0000 </r>
      </set>
      <set comment="kpoint 31">
       <r>   -1.1270    1.0000 </r>
       <r>    3.0135    1.0000 </r>
       <r>    3.6484    1.0000 </r>
       <r>    7.6822    1.0000 </r>
       <r>   11.4280    0.0000 </r>
       <r>   14.3364    0.0000 </r>
       <r>   14.6326    0.0000 </r>
       <r>   16.4704    0.0000 </r>
      </set>
      <set comment="kpoint 32">
       <r>   -0.4559    1.0000 </r>
       <r>    2.1739    1.0000 </r>
       <r>    4.0474    1.0000 </r>
       <r>    6.6141    1.0000 </r>
       <r>   12.0248    0.0000 </r>
       <r>   14.1556    0.0000 </r>
       <r>   14.9264    0.0000 </r>
       <r>   16.3957    0.0000 </r>
      </set>
      <set comment="kpoint 33">
       <r>    0.3226    1.0000 </r>
       <r>    1.2042    1.0000 </r>
       <r>    4.7858    1.0000 </r>
       <r>    5.6465    1.0000 </r>
       <r>   12.7032    0.0000 </r>
       <r>   13.4382    0.0000 </r>
       <r>   15.5657    0.0000 </r>
       <r>   16.1542    0.0000 </r>
      </set>
      <set comment="kpoint 34">
       <r>    0.2110    1.0000 </r>
       <r>    2.5684    1.0000 </r>
       <r>    3.2201    1.0000 </r>
       <r>    5.5402    1.0000 </r>
       <r>   12.6023    0.0000 </r>
       <r>   14.2436    0.0000 </r>
       <r>   15.4716    0.0000 </r>
       <r>   16.0883    0.0000 </r>
      </set>
      <set comment="kpoint 35">
       <r>    0.9818    1.0000 </r>
       <r>    1.8415    1.0000 </r>
       <r>    3.7239    1.0000 </r>
       <r>    4.5712    1.0000 </r>
       <r>   13.2385    0.0000 </r>
       <r>   13.8606    0.0000 </r>
       <r>   15.9722    0.0000 </r>
       <r>   16.1168    0.0000 </r>
      </set>
      <set comment="kpoint 36">
       <r>    1.7305    1.0000 </r>
       <r>    2.3450    1.0000 </r>
       <r>    3.0054    1.0000 </r>
       <r>    3.6158    1.0000 </r>
       <r>   13.7621    0.0000 </r>
       <r>   14.0490    0.0000 </r>
       <r>   15.8936    0.0000 </r>
       <r>   16.0226    0.0000 </r>
      </set>
      <set comment="kpoint 37">
       <r>   -4.1818    1.0000 </r>
       <r>    6.8161    1.0000 </r>
       <r>    7.4391    1.0000 </r>
       <r>    7.4391    1.0000 </r>
       <r>   11.9311    0.0000 </r>
       <r>   13.5280    0.0000 </r>
       <r>   13.5280    0.0000 </r>
       <r>   16.8453    0.0000 </r>
      </set>
      <set comment="kpoint 38">
       <r>   -3.9537    1.0000 </r>
       <r>    5.7278    1.0000 </r>
       <r>    7.3160    1.0000 </r>
       <r>    7.6521    1.0000 </r>
       <r>   12.4174    0.0000 </r>
       <r>   13.7516    0.0000 </r>
       <r>   15.0340    0.0000 </r>
       <r>   15.9003    0.0000 </r>
      </set>
      <set comment="kpoint 39">
       <r>   -3.6122    1.0000 </r>
       <r>    4.3748    1.0000 </r>
       <r>    7.6065    1.0000 </r>
       <r>    7.9714    1.0000 </r>
       <r>   12.7976    0.0000 </r>
       <r>   14.0863    0.0000 </r>
       <r>   14.8001    0.0000 </r>
       <r>   15.4228    0.0000 </r>
      </set>
      <set comment="kpoint 40">
       <r>   -3.1577    1.0000 </r>
       <r>    3.0820    1.0000 </r>
       <r>    8.0221    1.0000 </r>
       <r>    8.3966    1.0000 </r>
       <r>   13.2249    0.0000 </r>
       <r>   13.6912    0.0000 </r>
       <r>   14.2279    0.0000 </r>
       <r>   14.5320    0.0000 </r>
      </set>
      <set comment="kpoint 41">
       <r>   -2.5910    1.0000 </r>
       <r>    1.8783    1.0000 </r>
       <r>    8.5456    1.0000 </r>
       <r>    8.9270    1.0269 </r>
       <r>   12.6273    0.0000 </r>
       <r>   13.1087    0.0000 </r>
       <r>   13.7278    0.0000 </r>
       <r>   15.0876    0.0000 </r>
      </set>
      <set comment="kpoint 42">
       <r>   -1.9131    1.0000 </r>
       <r>    0.7729    1.0000 </r>
       <r>    9.1722   -0.0432 </r>
       <r>    9.5617    0.0000 </r>
       <r>   11.6326    0.0000 </r>
       <r>   12.0766    0.0000 </r>
       <r>   14.3095    0.0000 </r>
       <r>   15.7520    0.0000 </r>
      </set>
      <set comment="kpoint 43">
       <r>   -1.1254    1.0000 </r>
       <r>   -0.2293    1.0000 </r>
       <r>    9.8984    0.0000 </r>
       <r>   10.2997    0.0000 </r>
       <r>   10.7203    0.0000 </r>
       <r>   11.1389    0.0000 </r>
       <r>   14.9638    0.0000 </r>
       <r>   15.6761    0.0000 </r>
      </set>
      <set comment="kpoint 44">
       <r>   -3.7260    1.0000 </r>
       <r>    5.7114    1.0000 </r>
       <r>    6.2713    1.0000 </r>
       <r>    7.7187    1.0000 </r>
       <r>   12.9957    0.0000 </r>
       <r>   14.8609    0.0000 </r>
       <r>   14.9347    0.0000 </r>
       <r>   15.5506    0.0000 </r>
      </set>
      <set comment="kpoint 45">
       <r>   -3.3849    1.0000 </r>
       <r>    4.5710    1.0000 </r>
       <r>    6.3629    1.0000 </r>
       <r>    8.0295    1.0000 </r>
       <r>   13.3901    0.0000 </r>
       <r>   13.7579    0.0000 </r>
       <r>   15.3219    0.0000 </r>
       <r>   15.4047    0.0000 </r>
      </set>
      <set comment="kpoint 46">
       <r>   -2.9309    1.0000 </r>
       <r>    3.2946    1.0000 </r>
       <r>    6.7721    1.0000 </r>
       <r>    8.4512    1.0000 </r>
       <r>   12.5913    0.0000 </r>
       <r>   13.8214    0.0000 </r>
       <r>   14.1980    0.0000 </r>
       <r>   15.8603    0.0000 </r>
      </set>
      <set comment="kpoint 47">
       <r>   -2.3649    1.0000 </r>
       <r>    2.0962    1.0000 </r>
       <r>    7.3014    1.0000 </r>
       <r>    8.9787    1.0408 </r>
       <r>   11.4846    0.0000 </r>
       <r>   13.1116    0.0000 </r>
       <r>   14.3252    0.0000 </r>
       <r>   16.3963    0.0000 </r>
      </set>
      <set comment="kpoint 48">
       <r>   -1.6880    1.0000 </r>
       <r>    0.9936    1.0000 </r>
       <r>    7.9386    1.0000 </r>
       <r>    9.6097    0.0000 </r>
       <r>   10.4576    0.0000 </r>
       <r>   12.0987    0.0000 </r>
       <r>   14.9027    0.0000 </r>
       <r>   16.8009    0.0000 </r>
      </set>
      <set comment="kpoint 49">
       <r>   -0.9013    1.0000 </r>
       <r>   -0.0067    1.0000 </r>
       <r>    8.6794    1.0000 </r>
       <r>    9.5205    0.0000 </r>
       <r>   10.3422    0.0000 </r>
       <r>   11.1733    0.0000 </r>
       <r>   15.5400    0.0000 </r>
       <r>   16.2016    0.0000 </r>
      </set>
      <set comment="kpoint 50">
       <r>   -3.0443    1.0000 </r>
       <r>    4.6525    1.0000 </r>
       <r>    5.2398    1.0000 </r>
       <r>    8.3383    1.0000 </r>
       <r>   12.5223    0.0000 </r>
       <r>   13.7836    0.0000 </r>
       <r>   15.1963    0.0000 </r>
       <r>   16.2447    0.0000 </r>
      </set>
      <set comment="kpoint 51">
       <r>   -2.5913    1.0000 </r>
       <r>    3.5996    1.0000 </r>
       <r>    5.4327    1.0000 </r>
       <r>    8.7585    0.9997 </r>
       <r>   11.3198    0.0000 </r>
       <r>   14.2126    0.0000 </r>
       <r>   14.3871    0.0000 </r>
       <r>   16.2283    0.0000 </r>
      </set>
      <set comment="kpoint 52">
       <r>   -2.0264    1.0000 </r>
       <r>    2.4195    1.0000 </r>
       <r>    5.9517    1.0000 </r>
       <r>    9.2841    0.0038 </r>
       <r>   10.1883    0.0000 </r>
       <r>   13.3675    0.0000 </r>
       <r>   14.7115    0.0000 </r>
       <r>   16.4858    0.0000 </r>
      </set>
      <set comment="kpoint 53">
       <r>   -1.3508    1.0000 </r>
       <r>    1.3231    1.0000 </r>
       <r>    6.5920    1.0000 </r>
       <r>    9.1431   -0.0467 </r>
       <r>    9.9124    0.0000 </r>
       <r>   12.3788    0.0000 </r>
       <r>   15.2749    0.0000 </r>
       <r>   16.6330    0.0000 </r>
      </set>
      <set comment="kpoint 54">
       <r>   -0.5660    1.0000 </r>
       <r>    0.3263    1.0000 </r>
       <r>    7.3403    1.0000 </r>
       <r>    8.1920    1.0000 </r>
       <r>   10.6407    0.0000 </r>
       <r>   11.4651    0.0000 </r>
       <r>   15.8702    0.0000 </r>
       <r>   16.3988    0.0000 </r>
      </set>
      <set comment="kpoint 55">
       <r>   -2.1393    1.0000 </r>
       <r>    3.7829    1.0000 </r>
       <r>    4.3964    1.0000 </r>
       <r>    9.1769   -0.0392 </r>
       <r>   10.0944    0.0000 </r>
       <r>   14.3803    0.0000 </r>
       <r>   14.6331    0.0000 </r>
       <r>   15.5036    0.0000 </r>
      </set>
      <set comment="kpoint 56">
       <r>   -1.5760    1.0000 </r>
       <r>    2.8345    1.0000 </r>
       <r>    4.6912    1.0000 </r>
       <r>    8.9466    1.0447 </r>
       <r>    9.7000    0.0000 </r>
       <r>   13.6760    0.0000 </r>
       <r>   15.1124    0.0000 </r>
       <r>   15.5745    0.0000 </r>
      </set>
      <set comment="kpoint 57">
       <r>   -0.9025    1.0000 </r>
       <r>    1.7581    1.0000 </r>
       <r>    5.3198    1.0000 </r>
       <r>    7.8890    1.0000 </r>
       <r>   10.3246    0.0000 </r>
       <r>   12.7520    0.0000 </r>
       <r>   15.6272    0.0000 </r>
       <r>   15.9468    0.0000 </r>
      </set>
      <set comment="kpoint 58">
       <r>   -0.1203    1.0000 </r>
       <r>    0.7681    1.0000 </r>
       <r>    6.0704    1.0000 </r>
       <r>    6.9286    1.0000 </r>
       <r>   11.0469    0.0000 </r>
       <r>   11.8607    0.0000 </r>
       <r>   16.0804    0.0000 </r>
       <r>   16.2185    0.0000 </r>
      </set>
      <set comment="kpoint 59">
       <r>   -1.0148    1.0000 </r>
       <r>    3.1222    1.0000 </r>
       <r>    3.7574    1.0000 </r>
       <r>    7.7868    1.0000 </r>
       <r>   10.2193    0.0000 </r>
       <r>   13.7762    0.0000 </r>
       <r>   14.9227    0.0000 </r>
       <r>   15.5415    0.0000 </r>
      </set>
      <set comment="kpoint 60">
       <r>   -0.3441    1.0000 </r>
       <r>    2.2839    1.0000 </r>
       <r>    4.1558    1.0000 </r>
       <r>    6.7203    1.0000 </r>
       <r>   10.8380    0.0000 </r>
       <r>   13.1693    0.0000 </r>
       <r>   15.0931    0.0000 </r>
       <r>   15.9108    0.0000 </r>
      </set>
      <set comment="kpoint 61">
       <r>    0.4340    1.0000 </r>
       <r>    1.3150    1.0000 </r>
       <r>    4.8937    1.0000 </r>
       <r>    5.7537    1.0000 </r>
       <r>   11.5499    0.0000 </r>
       <r>   12.3418    0.0000 </r>
       <r>   15.5757    0.0000 </r>
       <r>   15.9576    0.0000 </r>
      </set>
      <set comment="kpoint 62">
       <r>    0.3224    1.0000 </r>
       <r>    2.6784    1.0000 </r>
       <r>    3.3291    1.0000 </r>
       <r>    5.6476    1.0000 </r>
       <r>   11.4462    0.0000 </r>
       <r>   13.3746    0.0000 </r>
       <r>   14.5265    0.0000 </r>
       <r>   15.8690    0.0000 </r>
      </set>
      <set comment="kpoint 63">
       <r>    1.0929    1.0000 </r>
       <r>    1.9520    1.0000 </r>
       <r>    3.8327    1.0000 </r>
       <r>    4.6795    1.0000 </r>
       <r>   12.1364    0.0000 </r>
       <r>   12.8651    0.0000 </r>
       <r>   14.7995    0.0000 </r>
       <r>   15.3872    0.0000 </r>
      </set>
      <set comment="kpoint 64">
       <r>    1.8411    1.0000 </r>
       <r>    2.4556    1.0000 </r>
       <r>    3.1145    1.0000 </r>
       <r>    3.7248    1.0000 </r>
       <r>   12.7636    0.0000 </r>
       <r>   13.1740    0.0000 </r>
       <r>   14.3261    0.0000 </r>
       <r>   14.7010    0.0000 </r>
      </set>
      <set comment="kpoint 65">
       <r>   -3.4985    1.0000 </r>
       <r>    5.7373    1.0000 </r>
       <r>    6.4868    1.0000 </r>
       <r>    6.4868    1.0000 </r>
       <r>   14.0593    0.0000 </r>
       <r>   14.5738    0.0000 </r>
       <r>   15.7326    0.0000 </r>
       <r>   15.7385    0.0000 </r>
      </set>
      <set comment="kpoint 66">
       <r>   -3.1578    1.0000 </r>
       <r>    4.7649    1.0000 </r>
       <r>    6.4034    1.0000 </r>
       <r>    6.8099    1.0000 </r>
       <r>   13.6091    0.0000 </r>
       <r>   14.4198    0.0000 </r>
       <r>   14.6099    0.0000 </r>
       <r>   15.7960    0.0000 </r>
      </set>
      <set comment="kpoint 67">
       <r>   -2.7044    1.0000 </r>
       <r>    3.5068    1.0000 </r>
       <r>    6.7925    1.0000 </r>
       <r>    7.2404    1.0000 </r>
       <r>   12.5120    0.0000 </r>
       <r>   13.1829    0.0000 </r>
       <r>   15.0528    0.0000 </r>
       <r>   16.0805    0.0000 </r>
      </set>
      <set comment="kpoint 68">
       <r>   -2.1391    1.0000 </r>
       <r>    2.3138    1.0000 </r>
       <r>    7.3147    1.0000 </r>
       <r>    7.7777    1.0000 </r>
       <r>   11.4408    0.0000 </r>
       <r>   12.0336    0.0000 </r>
       <r>   15.5158    0.0000 </r>
       <r>   16.4255    0.0000 </r>
      </set>
      <set comment="kpoint 69">
       <r>   -1.4631    1.0000 </r>
       <r>    1.2141    1.0000 </r>
       <r>    7.9464    1.0000 </r>
       <r>    8.4214    1.0000 </r>
       <r>   10.4354    0.0000 </r>
       <r>   10.9789    0.0000 </r>
       <r>   16.0027    0.0000 </r>
       <r>   16.7107    0.0000 </r>
      </set>
      <set comment="kpoint 70">
       <r>   -0.6775    1.0000 </r>
       <r>    0.2157    1.0000 </r>
       <r>    8.6807    1.0000 </r>
       <r>    9.1704   -0.0446 </r>
       <r>    9.5124    0.0000 </r>
       <r>   10.0236    0.0000 </r>
       <r>   16.4590    0.0000 </r>
       <r>   16.7474    0.0000 </r>
      </set>
      <set comment="kpoint 71">
       <r>   -2.8177    1.0000 </r>
       <r>    4.8413    1.0000 </r>
       <r>    5.4566    1.0000 </r>
       <r>    6.9531    1.0000 </r>
       <r>   12.6393    0.0000 </r>
       <r>   14.1490    0.0000 </r>
       <r>   14.8251    0.0000 </r>
       <r>   15.2401    0.0000 </r>
      </set>
      <set comment="kpoint 72">
       <r>   -2.3651    1.0000 </r>
       <r>    3.8108    1.0000 </r>
       <r>    5.6366    1.0000 </r>
       <r>    7.3706    1.0000 </r>
       <r>   11.4821    0.0000 </r>
       <r>   13.1859    0.0000 </r>
       <r>   14.9207    0.0000 </r>
       <r>   15.6784    0.0000 </r>
      </set>
      <set comment="kpoint 73">
       <r>   -1.8010    1.0000 </r>
       <r>    2.6368    1.0000 </r>
       <r>    6.1522    1.0000 </r>
       <r>    7.9021    1.0000 </r>
       <r>   10.3674    0.0000 </r>
       <r>   12.0914    0.0000 </r>
       <r>   15.3295    0.0000 </r>
       <r>   16.0915    0.0000 </r>
      </set>
      <set comment="kpoint 74">
       <r>   -1.1263    1.0000 </r>
       <r>    1.5434    1.0000 </r>
       <r>    6.7904    1.0000 </r>
       <r>    8.5401    1.0000 </r>
       <r>    9.3308    0.0010 </r>
       <r>   11.0634    0.0000 </r>
       <r>   15.8129    0.0000 </r>
       <r>   16.4355    0.0000 </r>
      </set>
      <set comment="kpoint 75">
       <r>   -0.3425    1.0000 </r>
       <r>    0.5484    1.0000 </r>
       <r>    7.5363    1.0000 </r>
       <r>    8.3848    1.0000 </r>
       <r>    9.2819    0.0040 </r>
       <r>   10.1244    0.0000 </r>
       <r>   16.2748    0.0000 </r>
       <r>   16.5369    0.0000 </r>
      </set>
      <set comment="kpoint 76">
       <r>   -1.9137    1.0000 </r>
       <r>    3.9921    1.0000 </r>
       <r>    4.6139    1.0000 </r>
       <r>    7.7848    1.0000 </r>
       <r>   10.2852    0.0000 </r>
       <r>   13.2431    0.0000 </r>
       <r>   14.0526    0.0000 </r>
       <r>   16.0713    0.0000 </r>
      </set>
      <set comment="kpoint 77">
       <r>   -1.3511    1.0000 </r>
       <r>    3.0512    1.0000 </r>
       <r>    4.9046    1.0000 </r>
       <r>    8.3134    1.0000 </r>
       <r>    9.1471   -0.0497 </r>
       <r>   12.4293    0.0000 </r>
       <r>   14.2329    0.0000 </r>
       <r>   16.3515    0.0000 </r>
      </set>
      <set comment="kpoint 78">
       <r>   -0.6784    1.0000 </r>
       <r>    1.9779    1.0000 </r>
       <r>    5.5316    1.0000 </r>
       <r>    8.0943    1.0000 </r>
       <r>    8.9481    1.0458 </r>
       <r>   11.4430    0.0000 </r>
       <r>   14.7524    0.0000 </r>
       <r>   16.3494    0.0000 </r>
      </set>
      <set comment="kpoint 79">
       <r>    0.1027    1.0000 </r>
       <r>    0.9898    1.0000 </r>
       <r>    6.2806    1.0000 </r>
       <r>    7.1368    1.0000 </r>
       <r>    9.6849    0.0000 </r>
       <r>   10.5193    0.0000 </r>
       <r>   15.3548    0.0000 </r>
       <r>   15.9481    0.0000 </r>
      </set>
      <set comment="kpoint 80">
       <r>   -0.7905    1.0000 </r>
       <r>    3.3382    1.0000 </r>
       <r>    3.9753    1.0000 </r>
       <r>    7.9944    1.0000 </r>
       <r>    8.8391    0.9957 </r>
       <r>   12.6104    0.0000 </r>
       <r>   13.4548    0.0000 </r>
       <r>   16.2794    0.0000 </r>
      </set>
      <set comment="kpoint 81">
       <r>   -0.1206    1.0000 </r>
       <r>    2.5031    1.0000 </r>
       <r>    4.3720    1.0000 </r>
       <r>    6.9314    1.0000 </r>
       <r>    9.4695    0.0000 </r>
       <r>   11.9048    0.0000 </r>
       <r>   13.7340    0.0000 </r>
       <r>   15.7768    0.0000 </r>
      </set>
      <set comment="kpoint 82">
       <r>    0.6564    1.0000 </r>
       <r>    1.5361    1.0000 </r>
       <r>    5.1086    1.0000 </r>
       <r>    5.9671    1.0000 </r>
       <r>   10.1993    0.0000 </r>
       <r>   11.0201    0.0000 </r>
       <r>   14.3613    0.0000 </r>
       <r>   15.0734    0.0000 </r>
      </set>
      <set comment="kpoint 83">
       <r>    0.5451    1.0000 </r>
       <r>    2.8975    1.0000 </r>
       <r>    3.5472    1.0000 </r>
       <r>    5.8618    1.0000 </r>
       <r>   10.0930    0.0000 </r>
       <r>   12.1949    0.0000 </r>
       <r>   13.0494    0.0000 </r>
       <r>   14.9787    0.0000 </r>
      </set>
      <set comment="kpoint 84">
       <r>    1.3146    1.0000 </r>
       <r>    2.1725    1.0000 </r>
       <r>    4.0500    1.0000 </r>
       <r>    4.8955    1.0000 </r>
       <r>   10.8095    0.0000 </r>
       <r>   11.5918    0.0000 </r>
       <r>   13.4317    0.0000 </r>
       <r>   14.1641    0.0000 </r>
      </set>
      <set comment="kpoint 85">
       <r>    2.0620    1.0000 </r>
       <r>    2.6759    1.0000 </r>
       <r>    3.3327    1.0000 </r>
       <r>    3.9424    1.0000 </r>
       <r>   11.4877    0.0000 </r>
       <r>   11.9880    0.0000 </r>
       <r>   12.8449    0.0000 </r>
       <r>   13.3305    0.0000 </r>
      </set>
      <set comment="kpoint 86">
       <r>   -2.4782    1.0000 </r>
       <r>    4.9656    1.0000 </r>
       <r>    5.7816    1.0000 </r>
       <r>    5.7816    1.0000 </r>
       <r>   12.4180    0.0000 </r>
       <r>   13.4780    0.0000 </r>
       <r>   13.4780    0.0000 </r>
       <r>   16.1934    0.0000 </r>
      </set>
      <set comment="kpoint 87">
       <r>   -2.0264    1.0000 </r>
       <r>    4.1122    1.0000 </r>
       <r>    5.7750    1.0000 </r>
       <r>    6.2147    1.0000 </r>
       <r>   11.4710    0.0000 </r>
       <r>   12.2176    0.0000 </r>
       <r>   13.6565    0.0000 </r>
       <r>   16.6148    0.0000 </r>
      </set>
      <set comment="kpoint 88">
       <r>   -1.4634    1.0000 </r>
       <r>    2.9591    1.0000 </r>
       <r>    6.2670    1.0000 </r>
       <r>    6.7556    1.0000 </r>
       <r>   10.4120    0.0000 </r>
       <r>   11.0513    0.0000 </r>
       <r>   14.1006    0.0000 </r>
       <r>   16.7222    0.0000 </r>
      </set>
      <set comment="kpoint 89">
       <r>   -0.7900    1.0000 </r>
       <r>    1.8721    1.0000 </r>
       <r>    6.8962    1.0000 </r>
       <r>    7.4038    1.0000 </r>
       <r>    9.4022    0.0000 </r>
       <r>    9.9842    0.0000 </r>
       <r>   14.6563    0.0000 </r>
       <r>   16.4670    0.0000 </r>
      </set>
      <set comment="kpoint 90">
       <r>   -0.0080    1.0000 </r>
       <r>    0.8806    1.0000 </r>
       <r>    7.6342    1.0000 </r>
       <r>    8.1586    1.0000 </r>
       <r>    8.4722    1.0000 </r>
       <r>    9.0193    0.8687 </r>
       <r>   15.2816    0.0000 </r>
       <r>   15.9234    0.0000 </r>
      </set>
      <set comment="kpoint 91">
       <r>   -1.5759    1.0000 </r>
       <r>    4.2884    1.0000 </r>
       <r>    4.9400    1.0000 </r>
       <r>    6.4524    1.0000 </r>
       <r>   10.5307    0.0000 </r>
       <r>   12.0992    0.0000 </r>
       <r>   12.6858    0.0000 </r>
       <r>   16.7742    0.0000 </r>
      </set>
      <set comment="kpoint 92">
       <r>   -1.0142    1.0000 </r>
       <r>    3.3722    1.0000 </r>
       <r>    5.2164    1.0000 </r>
       <r>    6.9777    1.0000 </r>
       <r>    9.4274    0.0000 </r>
       <r>   11.1834    0.0000 </r>
       <r>   12.9317    0.0000 </r>
       <r>   16.3784    0.0000 </r>
      </set>
      <set comment="kpoint 93">
       <r>   -0.3429    1.0000 </r>
       <r>    2.3059    1.0000 </r>
       <r>    5.8389    1.0000 </r>
       <r>    7.6178    1.0000 </r>
       <r>    8.3873    1.0000 </r>
       <r>   10.1576    0.0000 </r>
       <r>   13.4972    0.0000 </r>
       <r>   15.6843    0.0000 </r>
      </set>
      <set comment="kpoint 94">
       <r>    0.4366    1.0000 </r>
       <r>    1.3213    1.0000 </r>
       <r>    6.5846    1.0000 </r>
       <r>    7.4365    1.0000 </r>
       <r>    8.3642    1.0000 </r>
       <r>    9.2126   -0.0081 </r>
       <r>   14.1693    0.0000 </r>
       <r>   14.9135    0.0000 </r>
      </set>
      <set comment="kpoint 95">
       <r>   -0.4547    1.0000 </r>
       <r>    3.6571    1.0000 </r>
       <r>    4.3020    1.0000 </r>
       <r>    7.4981    1.0000 </r>
       <r>    8.2985    1.0000 </r>
       <r>   11.4019    0.0000 </r>
       <r>   12.0767    0.0000 </r>
       <r>   15.6011    0.0000 </r>
      </set>
      <set comment="kpoint 96">
       <r>    0.2140    1.0000 </r>
       <r>    2.8302    1.0000 </r>
       <r>    4.6941    1.0000 </r>
       <r>    7.2437    1.0000 </r>
       <r>    8.1338    1.0000 </r>
       <r>   10.6272    0.0000 </r>
       <r>   12.4182    0.0000 </r>
       <r>   14.7258    0.0000 </r>
      </set>
      <set comment="kpoint 97">
       <r>    0.9893    1.0000 </r>
       <r>    1.8668    1.0000 </r>
       <r>    5.4281    1.0000 </r>
       <r>    6.2837    1.0000 </r>
       <r>    8.8739    0.9963 </r>
       <r>    9.7114    0.0000 </r>
       <r>   13.0931    0.0000 </r>
       <r>   13.8740    0.0000 </r>
      </set>
      <set comment="kpoint 98">
       <r>    0.8785    1.0000 </r>
       <r>    3.2236    1.0000 </r>
       <r>    3.8743    1.0000 </r>
       <r>    6.1806    1.0000 </r>
       <r>    8.7639    0.9996 </r>
       <r>   10.9682    0.0000 </r>
       <r>   11.6650    0.0000 </r>
       <r>   13.7750    0.0000 </r>
      </set>
      <set comment="kpoint 99">
       <r>    1.6463    1.0000 </r>
       <r>    2.5021    1.0000 </r>
       <r>    4.3749    1.0000 </r>
       <r>    5.2179    1.0000 </r>
       <r>    9.4943    0.0000 </r>
       <r>   10.3043    0.0000 </r>
       <r>   12.1093    0.0000 </r>
       <r>   12.8901    0.0000 </r>
      </set>
      <set comment="kpoint 100">
       <r>    2.3923    1.0000 </r>
       <r>    3.0047    1.0000 </r>
       <r>    3.6598    1.0000 </r>
       <r>    4.2680    1.0000 </r>
       <r>   10.1974    0.0000 </r>
       <r>   10.7547    0.0000 </r>
       <r>   11.4578    0.0000 </r>
       <r>   12.0061    0.0000 </r>
      </set>
      <set comment="kpoint 101">
       <r>   -1.1264    1.0000 </r>
       <r>    4.5163    1.0000 </r>
       <r>    5.3746    1.0000 </r>
       <r>    5.3746    1.0000 </r>
       <r>   10.4535    0.0000 </r>
       <r>   11.4118    0.0000 </r>
       <r>   11.4118    0.0000 </r>
       <r>   16.3586    0.0000 </r>
      </set>
      <set comment="kpoint 102">
       <r>   -0.5662    1.0000 </r>
       <r>    3.7821    1.0000 </r>
       <r>    5.4575    1.0000 </r>
       <r>    5.9174    1.0000 </r>
       <r>    9.5518    0.0000 </r>
       <r>   10.2358    0.0000 </r>
       <r>   11.7150    0.0000 </r>
       <r>   15.5332    0.0000 </r>
      </set>
      <set comment="kpoint 103">
       <r>    0.1033    1.0000 </r>
       <r>    2.7386    1.0000 </r>
       <r>    6.0530    1.0000 </r>
       <r>    6.5682    1.0000 </r>
       <r>    8.5561    1.0000 </r>
       <r>    9.1615   -0.0500 </r>
       <r>   12.2921    0.0000 </r>
       <r>   14.6392    0.0000 </r>
      </set>
      <set comment="kpoint 104">
       <r>    0.8801    1.0000 </r>
       <r>    1.7611    1.0000 </r>
       <r>    6.7866    1.0000 </r>
       <r>    7.3262    1.0000 </r>
       <r>    7.6257    1.0000 </r>
       <r>    8.1910    1.0000 </r>
       <r>   12.9887    0.0000 </r>
       <r>   13.7781    0.0000 </r>
      </set>
      <set comment="kpoint 105">
       <r>   -0.0080    1.0000 </r>
       <r>    4.0617    1.0000 </r>
       <r>    4.7374    1.0000 </r>
       <r>    6.2551    1.0000 </r>
       <r>    8.6675    1.0000 </r>
       <r>   10.2676    0.0000 </r>
       <r>   10.7947    0.0000 </r>
       <r>   14.5463    0.0000 </r>
      </set>
      <set comment="kpoint 106">
       <r>    0.6587    1.0000 </r>
       <r>    3.2609    1.0000 </r>
       <r>    5.1138    1.0000 </r>
       <r>    6.8875    1.0000 </r>
       <r>    7.6407    1.0000 </r>
       <r>    9.4223    0.0000 </r>
       <r>   11.1795    0.0000 </r>
       <r>   13.5812    0.0000 </r>
      </set>
      <set comment="kpoint 107">
       <r>    1.4316    1.0000 </r>
       <r>    2.3052    1.0000 </r>
       <r>    5.8416    1.0000 </r>
       <r>    6.6911    1.0000 </r>
       <r>    7.6339    1.0000 </r>
       <r>    8.4834    1.0000 </r>
       <r>   11.8759    0.0000 </r>
       <r>   12.6838    0.0000 </r>
      </set>
      <set comment="kpoint 108">
       <r>    1.3214    1.0000 </r>
       <r>    3.6513    1.0000 </r>
       <r>    4.3102    1.0000 </r>
       <r>    6.5985    1.0000 </r>
       <r>    7.5122    1.0000 </r>
       <r>    9.7853    0.0000 </r>
       <r>   10.3787    0.0000 </r>
       <r>   12.5820    0.0000 </r>
      </set>
      <set comment="kpoint 109">
       <r>    2.0868    1.0000 </r>
       <r>    2.9386    1.0000 </r>
       <r>    4.8050    1.0000 </r>
       <r>    5.6433    1.0000 </r>
       <r>    8.2496    1.0000 </r>
       <r>    9.0764    0.3146 </r>
       <r>   10.8634    0.0000 </r>
       <r>   11.6682    0.0000 </r>
      </set>
      <set comment="kpoint 110">
       <r>    2.8302    1.0000 </r>
       <r>    3.4386    1.0000 </r>
       <r>    4.0959    1.0000 </r>
       <r>    4.6999    1.0000 </r>
       <r>    8.9652    1.0514 </r>
       <r>    9.5608    0.0000 </r>
       <r>   10.1695    0.0000 </r>
       <r>   10.7582    0.0000 </r>
      </set>
      <set comment="kpoint 111">
       <r>    0.5482    1.0000 </r>
       <r>    4.3946    1.0000 </r>
       <r>    5.2813    1.0000 </r>
       <r>    5.2813    1.0000 </r>
       <r>    8.7285    0.9999 </r>
       <r>    9.6129    0.0000 </r>
       <r>    9.6129    0.0000 </r>
       <r>   13.4830    0.0000 </r>
      </set>
      <set comment="kpoint 112">
       <r>    1.2123    1.0000 </r>
       <r>    3.7789    1.0000 </r>
       <r>    5.4584    1.0000 </r>
       <r>    5.9336    1.0000 </r>
       <r>    7.8947    1.0000 </r>
       <r>    8.5344    1.0000 </r>
       <r>   10.0400    0.0000 </r>
       <r>   12.4801    0.0000 </r>
      </set>
      <set comment="kpoint 113">
       <r>    1.9812    1.0000 </r>
       <r>    2.8473    1.0000 </r>
       <r>    6.1540    1.0000 </r>
       <r>    6.6936    1.0000 </r>
       <r>    6.9827    1.0000 </r>
       <r>    7.5608    1.0000 </r>
       <r>   10.7404    0.0000 </r>
       <r>   11.5611    0.0000 </r>
      </set>
      <set comment="kpoint 114">
       <r>    1.8724    1.0000 </r>
       <r>    4.1623    1.0000 </r>
       <r>    4.8548    1.0000 </r>
       <r>    6.3718    1.0000 </r>
       <r>    7.0877    1.0000 </r>
       <r>    8.7066    1.0000 </r>
       <r>    9.1937   -0.0232 </r>
       <r>   11.4567    0.0000 </r>
      </set>
      <set comment="kpoint 115">
       <r>    2.6337    1.0000 </r>
       <r>    3.4771    1.0000 </r>
       <r>    5.3306    1.0000 </r>
       <r>    6.1572    1.0000 </r>
       <r>    7.1072    1.0000 </r>
       <r>    7.9465    1.0000 </r>
       <r>    9.7089    0.0000 </r>
       <r>   10.5269    0.0000 </r>
      </set>
      <set comment="kpoint 116">
       <r>    3.3725    1.0000 </r>
       <r>    3.9706    1.0000 </r>
       <r>    4.6408    1.0000 </r>
       <r>    5.2338    1.0000 </r>
       <r>    7.8208    1.0000 </r>
       <r>    8.4452    1.0000 </r>
       <r>    8.9830    1.0334 </r>
       <r>    9.6009    0.0000 </r>
      </set>
      <set comment="kpoint 117">
       <r>    2.5284    1.0000 </r>
       <r>    4.5964    1.0000 </r>
       <r>    5.5077    1.0000 </r>
       <r>    5.5077    1.0000 </r>
       <r>    7.2841    1.0000 </r>
       <r>    8.1128    1.0000 </r>
       <r>    8.1128    1.0000 </r>
       <r>   10.4185    0.0000 </r>
      </set>
      <set comment="kpoint 118">
       <r>    3.2817    1.0000 </r>
       <r>    4.0992    1.0000 </r>
       <r>    5.7737    1.0000 </r>
       <r>    6.2689    1.0000 </r>
       <r>    6.5441    1.0000 </r>
       <r>    7.1375    1.0000 </r>
       <r>    8.6610    1.0000 </r>
       <r>    9.4802    0.0000 </r>
      </set>
      <set comment="kpoint 119">
       <r>    4.0106    1.0000 </r>
       <r>    4.5772    1.0000 </r>
       <r>    5.2942    1.0000 </r>
       <r>    5.8497    1.0000 </r>
       <r>    6.7951    1.0000 </r>
       <r>    7.4498    1.0000 </r>
       <r>    7.9011    1.0000 </r>
       <r>    8.5441    1.0000 </r>
      </set>
      <set comment="kpoint 120">
       <r>    4.7067    1.0000 </r>
       <r>    5.0825    1.0000 </r>
       <r>    6.0558    1.0000 </r>
       <r>    6.0558    1.0000 </r>
       <r>    6.2411    1.0000 </r>
       <r>    6.9250    1.0000 </r>
       <r>    6.9250    1.0000 </r>
       <r>    7.6036    1.0000 </r>
      </set>
     </set>
    </set>
   </array>
  </eigenvalues>
  <separator name="orbital magnetization" >
   <v name="MAGDIPOLOUT">      0.00000000      0.00000000      0.00000000</v>
  </separator>
  <dos>
   <i name="efermi">      9.05840754 </i>
   <total>
    <array>
     <dimension dim="1">gridpoints</dimension>
     <dimension dim="2">spin</dimension>
     <field>energy</field>
     <field>total</field>
     <field>integrated</field>
     <set>
      <set comment="spin 1">
       <r>    -5.7023     0.0000     0.0000 </r>
       <r>    -5.6159     0.0000     0.0000 </r>
       <r>    -5.5295     0.0000     0.0000 </r>
       <r>    -5.4431     0.0000     0.0000 </r>
       <r>    -5.3567     0.0000     0.0000 </r>
       <r>    -5.2704     0.0000     0.0000 </r>
       <r>    -5.1840     0.0000     0.0000 </r>
       <r>    -5.0976     0.0000     0.0000 </r>
       <r>    -5.0112     0.0000     0.0000 </r>
       <r>    -4.9248     0.0000     0.0000 </r>
       <r>    -4.8384     0.0000     0.0000 </r>
       <r>    -4.7520     0.0002     0.0000 </r>
       <r>    -4.6657    -0.0007     0.0000 </r>
       <r>    -4.5793     0.0022     0.0001 </r>
       <r>    -4.4929     0.0295     0.0027 </r>
       <r>    -4.4065     0.0833     0.0099 </r>
       <r>    -4.3201     0.1044     0.0189 </r>
       <r>    -4.2337     0.1056     0.0280 </r>
       <r>    -4.1474     0.1338     0.0396 </r>
       <r>    -4.0610     0.1950     0.0564 </r>
       <r>    -3.9746     0.1619     0.0704 </r>
       <r>    -3.8882     0.1073     0.0797 </r>
       <r>    -3.8018     0.2030     0.0972 </r>
       <r>    -3.7154     0.3021     0.1233 </r>
       <r>    -3.6291     0.2113     0.1416 </r>
       <r>    -3.5427     0.1092     0.1510 </r>
       <r>    -3.4563     0.2437     0.1721 </r>
       <r>    -3.3699     0.3067     0.1985 </r>
       <r>    -3.2835     0.2512     0.2202 </r>
       <r>    -3.1971     0.2195     0.2392 </r>
       <r>    -3.1108     0.3163     0.2665 </r>
       <r>    -3.0244     0.3184     0.2940 </r>
       <r>    -2.9380     0.2488     0.3155 </r>
       <r>    -2.8516     0.1927     0.3322 </r>
       <r>    -2.7652     0.2182     0.3510 </r>
       <r>    -2.6788     0.5058     0.3947 </r>
       <r>    -2.5925     0.3945     0.4288 </r>
       <r>    -2.5061     0.2672     0.4519 </r>
       <r>    -2.4197     0.2539     0.4738 </r>
       <r>    -2.3333     0.4282     0.5108 </r>
       <r>    -2.2469     0.1675     0.5253 </r>
       <r>    -2.1605     0.2484     0.5467 </r>
       <r>    -2.0741     0.5513     0.5943 </r>
       <r>    -1.9878     0.5338     0.6405 </r>
       <r>    -1.9014     0.2577     0.6627 </r>
       <r>    -1.8150     0.2916     0.6879 </r>
       <r>    -1.7286     0.4337     0.7254 </r>
       <r>    -1.6422     0.4203     0.7617 </r>
       <r>    -1.5558     0.3214     0.7894 </r>
       <r>    -1.4695     0.3586     0.8204 </r>
       <r>    -1.3831     0.4576     0.8600 </r>
       <r>    -1.2967     0.5144     0.9044 </r>
       <r>    -1.2103     0.2201     0.9234 </r>
       <r>    -1.1239     0.3486     0.9535 </r>
       <r>    -1.0375     0.5777     1.0034 </r>
       <r>    -0.9512     0.7169     1.0653 </r>
       <r>    -0.8648     0.4344     1.1029 </r>
       <r>    -0.7784     0.2277     1.1225 </r>
       <r>    -0.6920     0.3588     1.1535 </r>
       <r>    -0.6056     0.5035     1.1970 </r>
       <r>    -0.5192     0.3127     1.2241 </r>
       <r>    -0.4329     0.3772     1.2566 </r>
       <r>    -0.3465     0.7021     1.3173 </r>
       <r>    -0.2601     0.6954     1.3774 </r>
       <r>    -0.1737     0.3115     1.4043 </r>
       <r>    -0.0873     0.6259     1.4583 </r>
       <r>    -0.0009     0.4876     1.5005 </r>
       <r>     0.0854     0.3526     1.5309 </r>
       <r>     0.1718     0.3642     1.5624 </r>
       <r>     0.2582     0.6438     1.6180 </r>
       <r>     0.3446     0.5601     1.6664 </r>
       <r>     0.4310     0.4555     1.7057 </r>
       <r>     0.5174     0.4033     1.7406 </r>
       <r>     0.6038     0.4900     1.7829 </r>
       <r>     0.6901     0.8547     1.8567 </r>
       <r>     0.7765     0.4568     1.8962 </r>
       <r>     0.8629     0.3553     1.9269 </r>
       <r>     0.9493     0.6331     1.9816 </r>
       <r>     1.0357     0.8634     2.0561 </r>
       <r>     1.1221     0.2794     2.0803 </r>
       <r>     1.2084     0.4104     2.1157 </r>
       <r>     1.2948     0.8149     2.1861 </r>
       <r>     1.3812     0.8832     2.2624 </r>
       <r>     1.4676     0.2231     2.2817 </r>
       <r>     1.5540     0.3667     2.3134 </r>
       <r>     1.6404     0.4897     2.3557 </r>
       <r>     1.7267     0.5684     2.4048 </r>
       <r>     1.8131     0.7143     2.4665 </r>
       <r>     1.8995     0.8629     2.5410 </r>
       <r>     1.9859     0.7524     2.6060 </r>
       <r>     2.0723     0.6184     2.6594 </r>
       <r>     2.1587     0.5963     2.7109 </r>
       <r>     2.2450     0.4098     2.7463 </r>
       <r>     2.3314     0.9360     2.8272 </r>
       <r>     2.4178     0.6521     2.8835 </r>
       <r>     2.5042     0.5461     2.9307 </r>
       <r>     2.5906     0.4631     2.9707 </r>
       <r>     2.6770     0.6148     3.0238 </r>
       <r>     2.7633     0.5147     3.0683 </r>
       <r>     2.8497     0.6410     3.1237 </r>
       <r>     2.9361     0.7152     3.1854 </r>
       <r>     3.0225     0.7846     3.2532 </r>
       <r>     3.1089     0.5817     3.3035 </r>
       <r>     3.1953     0.4034     3.3383 </r>
       <r>     3.2817     0.7066     3.3994 </r>
       <r>     3.3680     0.8345     3.4714 </r>
       <r>     3.4544     0.5163     3.5160 </r>
       <r>     3.5408     0.5808     3.5662 </r>
       <r>     3.6272     0.5596     3.6146 </r>
       <r>     3.7136     0.7925     3.6830 </r>
       <r>     3.8000     0.8551     3.7569 </r>
       <r>     3.8863     0.5940     3.8082 </r>
       <r>     3.9727     0.3280     3.8365 </r>
       <r>     4.0591     0.8225     3.9076 </r>
       <r>     4.1455     0.8282     3.9791 </r>
       <r>     4.2319     0.4431     4.0174 </r>
       <r>     4.3183     0.7139     4.0791 </r>
       <r>     4.4046     0.8536     4.1528 </r>
       <r>     4.4910     0.3731     4.1850 </r>
       <r>     4.5774     0.7130     4.2466 </r>
       <r>     4.6638     1.1094     4.3424 </r>
       <r>     4.7502     0.9866     4.4277 </r>
       <r>     4.8366     0.7139     4.4893 </r>
       <r>     4.9229     0.8981     4.5669 </r>
       <r>     5.0093     0.3148     4.5941 </r>
       <r>     5.0957     0.1960     4.6111 </r>
       <r>     5.1821     0.6589     4.6680 </r>
       <r>     5.2685     0.9483     4.7499 </r>
       <r>     5.3549     0.8828     4.8262 </r>
       <r>     5.4412     0.7278     4.8890 </r>
       <r>     5.5276     0.7265     4.9518 </r>
       <r>     5.6140     0.7058     5.0128 </r>
       <r>     5.7004     1.0829     5.1063 </r>
       <r>     5.7868     0.7400     5.1702 </r>
       <r>     5.8732     0.9965     5.2563 </r>
       <r>     5.9596     0.8854     5.3328 </r>
       <r>     6.0459     0.6114     5.3856 </r>
       <r>     6.1323     0.5231     5.4308 </r>
       <r>     6.2187     0.8850     5.5072 </r>
       <r>     6.3051     1.1752     5.6088 </r>
       <r>     6.3915     0.6265     5.6629 </r>
       <r>     6.4779     0.3699     5.6948 </r>
       <r>     6.5642     0.6102     5.7475 </r>
       <r>     6.6506     0.9289     5.8278 </r>
       <r>     6.7370     0.8901     5.9047 </r>
       <r>     6.8234     1.2026     6.0086 </r>
       <r>     6.9098     1.0067     6.0955 </r>
       <r>     6.9962     1.0294     6.1844 </r>
       <r>     7.0825     0.3373     6.2136 </r>
       <r>     7.1689     0.5807     6.2637 </r>
       <r>     7.2553     0.7716     6.3304 </r>
       <r>     7.3417     1.2061     6.4346 </r>
       <r>     7.4281     1.0225     6.5229 </r>
       <r>     7.5145     0.5347     6.5691 </r>
       <r>     7.6008     0.7730     6.6359 </r>
       <r>     7.6872     1.3176     6.7497 </r>
       <r>     7.7736     0.5997     6.8015 </r>
       <r>     7.8600     0.8015     6.8707 </r>
       <r>     7.9464     1.1630     6.9712 </r>
       <r>     8.0328     0.8602     7.0455 </r>
       <r>     8.1191     0.9814     7.1303 </r>
       <r>     8.2055     0.8273     7.2018 </r>
       <r>     8.2919     0.4604     7.2415 </r>
       <r>     8.3783     0.9775     7.3260 </r>
       <r>     8.4647     1.2058     7.4301 </r>
       <r>     8.5511     1.1445     7.5290 </r>
       <r>     8.6375     1.0648     7.6210 </r>
       <r>     8.7238     0.8860     7.6975 </r>
       <r>     8.8102     0.7749     7.7644 </r>
       <r>     8.8966     0.6703     7.8223 </r>
       <r>     8.9830     1.1348     7.9204 </r>
       <r>     9.0694     1.0299     8.0093 </r>
       <r>     9.1558     0.9346     8.0901 </r>
       <r>     9.2421     1.1529     8.1897 </r>
       <r>     9.3285     1.0131     8.2772 </r>
       <r>     9.4149     0.7019     8.3378 </r>
       <r>     9.5013     1.4468     8.4628 </r>
       <r>     9.5877     1.0972     8.5576 </r>
       <r>     9.6741     0.8586     8.6317 </r>
       <r>     9.7604     1.0187     8.7197 </r>
       <r>     9.8468     0.2287     8.7395 </r>
       <r>     9.9332     0.3980     8.7739 </r>
       <r>    10.0196     1.0870     8.8678 </r>
       <r>    10.1060     0.9293     8.9480 </r>
       <r>    10.1924     1.1497     9.0474 </r>
       <r>    10.2787     1.1175     9.1439 </r>
       <r>    10.3651     1.1547     9.2436 </r>
       <r>    10.4515     1.0947     9.3382 </r>
       <r>    10.5379     1.0315     9.4273 </r>
       <r>    10.6243     0.8647     9.5020 </r>
       <r>    10.7107     0.5041     9.5455 </r>
       <r>    10.7970     0.8302     9.6173 </r>
       <r>    10.8834     1.1968     9.7206 </r>
       <r>    10.9698     0.4543     9.7599 </r>
       <r>    11.0562     0.7805     9.8273 </r>
       <r>    11.1426     0.9398     9.9085 </r>
       <r>    11.2290     1.0917    10.0028 </r>
       <r>    11.3154     0.4674    10.0432 </r>
       <r>    11.4017     0.8950    10.1205 </r>
       <r>    11.4881     1.8447    10.2798 </r>
       <r>    11.5745     1.3898    10.3999 </r>
       <r>    11.6609     0.7442    10.4642 </r>
       <r>    11.7473     0.8076    10.5340 </r>
       <r>    11.8337     0.4826    10.5756 </r>
       <r>    11.9200     0.7719    10.6423 </r>
       <r>    12.0064     0.5880    10.6931 </r>
       <r>    12.0928     1.4373    10.8173 </r>
       <r>    12.1792     1.6451    10.9594 </r>
       <r>    12.2656     0.6601    11.0164 </r>
       <r>    12.3520     0.5806    11.0666 </r>
       <r>    12.4383     1.0861    11.1604 </r>
       <r>    12.5247     0.9704    11.2442 </r>
       <r>    12.6111     0.9908    11.3298 </r>
       <r>    12.6975     1.3157    11.4435 </r>
       <r>    12.7839     1.0839    11.5371 </r>
       <r>    12.8703     0.8830    11.6134 </r>
       <r>    12.9566     0.8052    11.6829 </r>
       <r>    13.0430     1.0013    11.7694 </r>
       <r>    13.1294     1.2114    11.8741 </r>
       <r>    13.2158     1.0672    11.9662 </r>
       <r>    13.3022     1.1055    12.0617 </r>
       <r>    13.3886     0.9897    12.1472 </r>
       <r>    13.4749     1.3672    12.2653 </r>
       <r>    13.5613     0.7574    12.3308 </r>
       <r>    13.6477     0.8093    12.4007 </r>
       <r>    13.7341     1.2954    12.5126 </r>
       <r>    13.8205     1.7369    12.6626 </r>
       <r>    13.9069     1.1783    12.7644 </r>
       <r>    13.9933     0.3213    12.7922 </r>
       <r>    14.0796     1.1270    12.8895 </r>
       <r>    14.1660     1.1077    12.9852 </r>
       <r>    14.2524     1.4955    13.1144 </r>
       <r>    14.3388     0.9671    13.1979 </r>
       <r>    14.4252     1.3234    13.3122 </r>
       <r>    14.5116     0.5211    13.3573 </r>
       <r>    14.5979     0.5998    13.4091 </r>
       <r>    14.6843     1.1909    13.5119 </r>
       <r>    14.7707     1.3036    13.6246 </r>
       <r>    14.8571     0.8903    13.7015 </r>
       <r>    14.9435     1.5612    13.8363 </r>
       <r>    15.0299     1.0510    13.9271 </r>
       <r>    15.1162     1.2700    14.0368 </r>
       <r>    15.2026     1.1631    14.1373 </r>
       <r>    15.2890     1.0849    14.2310 </r>
       <r>    15.3754     1.2569    14.3396 </r>
       <r>    15.4618     0.8309    14.4114 </r>
       <r>    15.5482     1.1670    14.5122 </r>
       <r>    15.6345     1.3768    14.6311 </r>
       <r>    15.7209     0.9017    14.7090 </r>
       <r>    15.8073     0.7001    14.7695 </r>
       <r>    15.8937     1.2592    14.8783 </r>
       <r>    15.9801     1.6420    15.0201 </r>
       <r>    16.0665     1.1629    15.1206 </r>
       <r>    16.1528     1.1994    15.2242 </r>
       <r>    16.2392     1.8570    15.3846 </r>
       <r>    16.3256     1.1422    15.4832 </r>
       <r>    16.4120     1.3357    15.5986 </r>
       <r>    16.4984     1.3143    15.7122 </r>
       <r>    16.5848     0.5884    15.7630 </r>
       <r>    16.6711     0.4198    15.7992 </r>
       <r>    16.7575     0.4560    15.8386 </r>
       <r>    16.8439     0.5589    15.8869 </r>
       <r>    16.9303     0.1819    15.9026 </r>
       <r>    17.0167     0.1987    15.9198 </r>
       <r>    17.1031     0.2475    15.9412 </r>
       <r>    17.1895     0.0803    15.9481 </r>
       <r>    17.2758     0.0309    15.9508 </r>
       <r>    17.3622     0.2430    15.9718 </r>
       <r>    17.4486     0.1604    15.9856 </r>
       <r>    17.5350    -0.0151    15.9843 </r>
       <r>    17.6214     0.0000    15.9843 </r>
       <r>    17.7078     0.0005    15.9844 </r>
       <r>    17.7941     0.0000    15.9844 </r>
       <r>    17.8805     0.0000    15.9844 </r>
       <r>    17.9669     0.0004    15.9844 </r>
       <r>    18.0533    -0.0023    15.9842 </r>
       <r>    18.1397     0.0035    15.9845 </r>
       <r>    18.2261     0.1020    15.9933 </r>
       <r>    18.3124     0.0380    15.9966 </r>
       <r>    18.3988    -0.0066    15.9960 </r>
       <r>    18.4852     0.0006    15.9961 </r>
       <r>    18.5716     0.0001    15.9961 </r>
       <r>    18.6580     0.0000    15.9961 </r>
       <r>    18.7444     0.0000    15.9961 </r>
       <r>    18.8307     0.0002    15.9961 </r>
       <r>    18.9171    -0.0020    15.9959 </r>
       <r>    19.0035     0.0105    15.9968 </r>
       <r>    19.0899     0.0350    15.9999 </r>
       <r>    19.1763     0.0024    16.0001 </r>
       <r>    19.2627    -0.0010    16.0000 </r>
       <r>    19.3490     0.0002    16.0000 </r>
       <r>    19.4354     0.0000    16.0000 </r>
       <r>    19.5218     0.0000    16.0000 </r>
       <r>    19.6082     0.0000    16.0000 </r>
       <r>    19.6946     0.0000    16.0000 </r>
       <r>    19.7810     0.0000    16.0000 </r>
       <r>    19.8674     0.0000    16.0000 </r>
       <r>    19.9537     0.0000    16.0000 </r>
       <r>    20.0401     0.0000    16.0000 </r>
       <r>    20.1265     0.0000    16.0000 </r>
       <r>    20.2129     0.0000    16.0000 </r>
      </set>
     </set>
    </array>
   </total>
  </dos>
 </calculation>
 <structure name="finalpos" >
  <crystal>
   <varray name="basis" >
    <v>       3.14973028       0.00000000       0.00000000 </v>
    <v>       0.00000000       3.14973028       0.00000000 </v>
    <v>       0.00000000       0.00000000       3.14973028 </v>
   </varray>
   <i name="volume">     31.24784692 </i>
   <varray name="rec_basis" >
    <v>       0.31748750       0.00000000       0.00000000 </v>
    <v>       0.00000000       0.31748750       0.00000000 </v>
    <v>       0.00000000       0.00000000       0.31748750 </v>
   </varray>
  </crystal>
  <varray name="positions" >
   <v>       0.00000000       0.00000000       0.00000000 </v>
   <v>       0.50000000       0.50000000       0.50000000 </v>
  </varray>
 </structure>
</modeling>
