<?xml version="1.0" encoding="ISO-8859-1"?>
<modeling>
 <generator>
  <i name="program" type="string">vasp </i>
  <i name="version" type="string">5.4.1  </i>
  <i name="subversion" type="string">24Jun15 (build Jul  8 2015 13:29:37) complex                          parallel </i>
  <i name="platform" type="string">FX10FRT </i>
  <i name="date" type="string">2016 02 20 </i>
  <i name="time" type="string">07:08:29 </i>
 </generator>
 <incar>
  <i type="string" name="PREC">accurate</i>
  <i type="string" name="ALGO"> Normal</i>
  <i type="int" name="ISPIN">     1</i>
  <i type="int" name="IBRION">    -1</i>
  <i name="EDIFF">      0.00010000</i>
  <i type="int" name="NSW">     0</i>
  <i type="int" name="ISIF">     2</i>
  <i name="ENCUT">    400.00000000</i>
  <i type="int" name="ISMEAR">     2</i>
  <i name="SIGMA">      0.10000000</i>
  <i type="int" name="NWRITE">     1</i>
  <v type="int" name="KPOINT_BSE">    -1     0     0     0</v>
 </incar>
 <kpoints>
  <generation param="Monkhorst-Pack">
   <v type="int" name="divisions">       9        9        9 </v>
   <v name="usershift">      0.00000000       0.00000000       0.00000000 </v>
   <v name="genvec1">      0.11111111       0.00000000       0.00000000 </v>
   <v name="genvec2">      0.00000000       0.11111111       0.00000000 </v>
   <v name="genvec3">      0.00000000       0.00000000       0.11111111 </v>
   <v name="shift">      0.00000000       0.00000000       0.00000000 </v>
  </generation>
  <varray name="kpointlist" >
   <v>       0.00000000       0.00000000       0.00000000 </v>
   <v>       0.11111111       0.00000000       0.00000000 </v>
   <v>       0.22222222       0.00000000       0.00000000 </v>
   <v>       0.33333333       0.00000000       0.00000000 </v>
   <v>       0.44444444       0.00000000       0.00000000 </v>
   <v>       0.11111111       0.11111111       0.00000000 </v>
   <v>       0.22222222       0.11111111       0.00000000 </v>
   <v>       0.33333333       0.11111111       0.00000000 </v>
   <v>       0.44444444       0.11111111       0.00000000 </v>
   <v>       0.22222222       0.22222222       0.00000000 </v>
   <v>       0.33333333       0.22222222       0.00000000 </v>
   <v>       0.44444444       0.22222222       0.00000000 </v>
   <v>       0.33333333       0.33333333       0.00000000 </v>
   <v>       0.44444444       0.33333333       0.00000000 </v>
   <v>       0.44444444       0.44444444       0.00000000 </v>
   <v>       0.11111111       0.11111111       0.11111111 </v>
   <v>       0.22222222       0.11111111       0.11111111 </v>
   <v>       0.33333333       0.11111111       0.11111111 </v>
   <v>       0.44444444       0.11111111       0.11111111 </v>
   <v>       0.22222222       0.22222222       0.11111111 </v>
   <v>       0.33333333       0.22222222       0.11111111 </v>
   <v>       0.44444444       0.22222222       0.11111111 </v>
   <v>       0.33333333       0.33333333       0.11111111 </v>
   <v>       0.44444444       0.33333333       0.11111111 </v>
   <v>       0.44444444       0.44444444       0.11111111 </v>
   <v>       0.22222222       0.22222222       0.22222222 </v>
   <v>       0.33333333       0.22222222       0.22222222 </v>
   <v>       0.44444444       0.22222222       0.22222222 </v>
   <v>       0.33333333       0.33333333       0.22222222 </v>
   <v>       0.44444444       0.33333333       0.22222222 </v>
   <v>       0.44444444       0.44444444       0.22222222 </v>
   <v>       0.33333333       0.33333333       0.33333333 </v>
   <v>       0.44444444       0.33333333       0.33333333 </v>
   <v>       0.44444444       0.44444444       0.33333333 </v>
   <v>       0.44444444       0.44444444       0.44444444 </v>
  </varray>
  <varray name="weights" >
   <v>       0.00137174 </v>
   <v>       0.00823045 </v>
   <v>       0.00823045 </v>
   <v>       0.00823045 </v>
   <v>       0.00823045 </v>
   <v>       0.01646091 </v>
   <v>       0.03292181 </v>
   <v>       0.03292181 </v>
   <v>       0.03292181 </v>
   <v>       0.01646091 </v>
   <v>       0.03292181 </v>
   <v>       0.03292181 </v>
   <v>       0.01646091 </v>
   <v>       0.03292181 </v>
   <v>       0.01646091 </v>
   <v>       0.01097394 </v>
   <v>       0.03292181 </v>
   <v>       0.03292181 </v>
   <v>       0.03292181 </v>
   <v>       0.03292181 </v>
   <v>       0.06584362 </v>
   <v>       0.06584362 </v>
   <v>       0.03292181 </v>
   <v>       0.06584362 </v>
   <v>       0.03292181 </v>
   <v>       0.01097394 </v>
   <v>       0.03292181 </v>
   <v>       0.03292181 </v>
   <v>       0.03292181 </v>
   <v>       0.06584362 </v>
   <v>       0.03292181 </v>
   <v>       0.01097394 </v>
   <v>       0.03292181 </v>
   <v>       0.03292181 </v>
   <v>       0.01097394 </v>
  </varray>
 </kpoints>
 <parameters>
  <separator name="general" >
   <i type="string" name="SYSTEM">unknown system</i>
   <i type="logical" name="LCOMPAT"> F  </i>
  </separator>
  <separator name="electronic" >
   <i type="string" name="PREC">accura</i>
   <i name="ENMAX">    400.00000000</i>
   <i name="ENAUG">    322.06900000</i>
   <i name="EDIFF">      0.00010000</i>
   <i type="int" name="IALGO">    38</i>
   <i type="int" name="IWAVPR">    10</i>
   <i type="int" name="NBANDS">    24</i>
   <i name="NELECT">     32.00000000</i>
   <i type="int" name="TURBO">     0</i>
   <i type="int" name="IRESTART">     0</i>
   <i type="int" name="NREBOOT">     0</i>
   <i type="int" name="NMIN">     0</i>
   <i name="EREF">      0.00000000</i>
   <separator name="electronic smearing" >
    <i type="int" name="ISMEAR">     2</i>
    <i name="SIGMA">      0.10000000</i>
    <i name="KSPACING">      0.50000000</i>
    <i type="logical" name="KGAMMA"> T  </i>
   </separator>
   <separator name="electronic projectors" >
    <i type="logical" name="LREAL"> F  </i>
    <v name="ROPT">      0.00000000</v>
    <i type="int" name="LMAXPAW">  -100</i>
    <i type="int" name="LMAXMIX">     2</i>
    <i type="logical" name="NLSPLINE"> F  </i>
   </separator>
   <separator name="electronic startup" >
    <i type="int" name="ISTART">     0</i>
    <i type="int" name="ICHARG">     2</i>
    <i type="int" name="INIWAV">     1</i>
   </separator>
   <separator name="electronic spin" >
    <i type="int" name="ISPIN">     1</i>
    <i type="logical" name="LNONCOLLINEAR"> F  </i>
    <v name="MAGMOM">      1.00000000      1.00000000      1.00000000      1.00000000      1.00000000      1.00000000      1.00000000      1.00000000</v>
    <i name="NUPDOWN">     -1.00000000</i>
    <i type="logical" name="LSORBIT"> F  </i>
    <v name="SAXIS">      0.00000000      0.00000000      1.00000000</v>
    <i type="logical" name="LSPIRAL"> F  </i>
    <v name="QSPIRAL">      0.00000000      0.00000000      0.00000000</v>
    <i type="logical" name="LZEROZ"> F  </i>
   </separator>
   <separator name="electronic exchange-correlation" >
    <i type="logical" name="LASPH"> F  </i>
    <i type="logical" name="LMETAGGA"> F  </i>
   </separator>
   <separator name="electronic convergence" >
    <i type="int" name="NELM">    60</i>
    <i type="int" name="NELMDL">    -5</i>
    <i type="int" name="NELMIN">     2</i>
    <i name="ENINI">    400.00000000</i>
    <separator name="electronic convergence detail" >
     <i type="logical" name="LDIAG"> T  </i>
     <i type="logical" name="LSUBROT"> F  </i>
     <i name="WEIMIN">      0.00000000</i>
     <i name="EBREAK">      0.00000104</i>
     <i name="DEPER">      0.30000000</i>
     <i type="int" name="NRMM">     4</i>
     <i name="TIME">      0.40000000</i>
    </separator>
   </separator>
   <separator name="electronic mixer" >
    <i name="AMIX">      0.40000000</i>
    <i name="BMIX">      1.00000000</i>
    <i name="AMIN">      0.10000000</i>
    <i name="AMIX_MAG">      1.60000000</i>
    <i name="BMIX_MAG">      1.00000000</i>
    <separator name="electronic mixer details" >
     <i type="int" name="IMIX">     4</i>
     <i type="logical" name="MIXFIRST"> F  </i>
     <i type="int" name="MAXMIX">   -45</i>
     <i name="WC">    100.00000000</i>
     <i type="int" name="INIMIX">     1</i>
     <i type="int" name="MIXPRE">     1</i>
     <i type="int" name="MREMOVE">     5</i>
    </separator>
   </separator>
   <separator name="electronic dipolcorrection" >
    <i type="logical" name="LDIPOL"> F  </i>
    <i type="logical" name="LMONO"> F  </i>
    <i type="int" name="IDIPOL">     0</i>
    <i name="EPSILON">      1.00000000</i>
    <v name="DIPOL">   -100.00000000   -100.00000000   -100.00000000</v>
    <i name="EFIELD">      0.00000000</i>
   </separator>
  </separator>
  <separator name="grids" >
   <i type="int" name="NGX">    36</i>
   <i type="int" name="NGY">    36</i>
   <i type="int" name="NGZ">    36</i>
   <i type="int" name="NGXF">    72</i>
   <i type="int" name="NGYF">    72</i>
   <i type="int" name="NGZF">    72</i>
   <i type="logical" name="ADDGRID"> F  </i>
  </separator>
  <separator name="ionic" >
   <i type="int" name="NSW">     0</i>
   <i type="int" name="IBRION">    -1</i>
   <i type="int" name="ISIF">     2</i>
   <i name="PSTRESS">      0.00000000</i>
   <i name="EDIFFG">      0.00100000</i>
   <i type="int" name="NFREE">     0</i>
   <i name="POTIM">      0.50000000</i>
   <i name="SMASS">     -3.00000000</i>
   <i name="SCALEE">      1.00000000</i>
  </separator>
  <separator name="ionic md" >
   <i name="TEBEG">      0.00010000</i>
   <i name="TEEND">      0.00010000</i>
   <i type="int" name="NBLOCK">     1</i>
   <i type="int" name="KBLOCK">     1</i>
   <i type="int" name="NPACO">   256</i>
   <i name="APACO">     16.00000000</i>
  </separator>
  <separator name="symmetry" >
   <i type="int" name="ISYM">     2</i>
   <i name="SYMPREC">      0.00001000</i>
  </separator>
  <separator name="dos" >
   <i type="logical" name="LORBIT"> F  </i>
   <v name="RWIGS">     -1.00000000</v>
   <i type="int" name="NEDOS">   301</i>
   <i name="EMIN">     10.00000000</i>
   <i name="EMAX">    -10.00000000</i>
   <i name="EFERMI">      0.00000000</i>
  </separator>
  <separator name="writing" >
   <i type="int" name="NWRITE">     1</i>
   <i type="logical" name="LWAVE"> T  </i>
   <i type="logical" name="LCHARG"> T  </i>
   <i type="logical" name="LPARD"> F  </i>
   <i type="logical" name="LVTOT"> F  </i>
   <i type="logical" name="LVHAR"> F  </i>
   <i type="logical" name="LELF"> F  </i>
   <i type="logical" name="LOPTICS"> F  </i>
   <v name="STM">      0.00000000      0.00000000      0.00000000      0.00000000      0.00000000      0.00000000      0.00000000</v>
  </separator>
  <separator name="performance" >
   <i type="int" name="NPAR">     8</i>
   <i type="int" name="NSIM">     4</i>
   <i type="int" name="NBLK">    -1</i>
   <i type="logical" name="LPLANE"> T  </i>
   <i type="logical" name="LSCALAPACK"> T  </i>
   <i type="logical" name="LSCAAWARE"> F  </i>
   <i type="logical" name="LSCALU"> F  </i>
   <i type="logical" name="LASYNC"> F  </i>
   <i type="logical" name="LORBITALREAL"> F  </i>
  </separator>
  <separator name="miscellaneous" >
   <i type="int" name="IDIOT">     3</i>
   <i type="logical" name="LMUSIC"> F  </i>
   <v name="POMASS">     28.08500000</v>
   <v name="DARWINR">      0.00000000</v>
   <v name="DARWINV">      1.00000000</v>
   <i type="logical" name="LCORR"> T  </i>
  </separator>
  <i type="logical" name="GGA_COMPAT"> T  </i>
  <i type="logical" name="LBERRY"> F  </i>
  <i type="int" name="ICORELEVEL">     0</i>
  <i type="logical" name="LDAU"> F  </i>
  <i type="int" name="I_CONSTRAINED_M">     0</i>
  <separator name="electronic exchange-correlation" >
   <i type="string" name="GGA">--</i>
   <i type="int" name="VOSKOWN">     0</i>
   <i type="logical" name="LHFCALC"> F  </i>
   <i type="string" name="PRECFOCK"></i>
   <i type="logical" name="LSYMGRAD"> F  </i>
   <i type="logical" name="LHFONE"> F  </i>
   <i type="logical" name="LRHFCALC"> F  </i>
   <i type="logical" name="LTHOMAS"> F  </i>
   <i type="logical" name="LMODELHF"> F  </i>
   <i name="ENCUT4O">     -1.00000000</i>
   <i type="int" name="EXXOEP">     0</i>
   <i type="int" name="FOURORBIT">     0</i>
   <i name="AEXX">      0.00000000</i>
   <i name="HFALPHA">      0.00000000</i>
   <i name="MCALPHA">      0.00000000</i>
   <i name="ALDAX">      1.00000000</i>
   <i name="AGGAX">      1.00000000</i>
   <i name="ALDAC">      1.00000000</i>
   <i name="AGGAC">      1.00000000</i>
   <i type="int" name="NKREDX">     1</i>
   <i type="int" name="NKREDY">     1</i>
   <i type="int" name="NKREDZ">     1</i>
   <i type="logical" name="SHIFTRED"> F  </i>
   <i type="logical" name="ODDONLY"> F  </i>
   <i type="logical" name="EVENONLY"> F  </i>
   <i type="int" name="LMAXFOCK">     0</i>
   <i type="int" name="NMAXFOCKAE">     0</i>
   <i type="logical" name="LFOCKAEDFT"> F  </i>
   <i name="HFSCREEN">      0.00000000</i>
   <i name="HFSCREENC">      0.00000000</i>
   <i type="int" name="NBANDSGWLOW">     0</i>
  </separator>
  <separator name="vdW DFT" >
   <i type="logical" name="LUSE_VDW"> F  </i>
   <i name="Zab_VDW">     -0.84910000</i>
   <i name="PARAM1">      0.12340000</i>
   <i name="PARAM2">      1.00000000</i>
   <i name="PARAM3">      0.00000000</i>
  </separator>
  <separator name="model GW" >
   <i type="int" name="MODEL_GW">     0</i>
   <i name="MODEL_EPS0">     11.90435583</i>
   <i name="MODEL_ALPHA">      1.00000000</i>
  </separator>
  <separator name="linear response parameters" >
   <i type="logical" name="LEPSILON"> F  </i>
   <i type="logical" name="LRPA"> F  </i>
   <i type="logical" name="LNABLA"> F  </i>
   <i type="logical" name="LVEL"> F  </i>
   <i type="int" name="KINTER">     0</i>
   <i name="CSHIFT">      0.10000000</i>
   <i name="OMEGAMAX">     -1.00000000</i>
   <i name="DEG_THRESHOLD">      0.00200000</i>
  </separator>
  <separator name="orbital magnetization" >
   <i type="logical" name="NUCIND"> F  </i>
   <v name="MAGPOS">      0.00000000      0.00000000      0.00000000</v>
   <i type="logical" name="LNICSALL"> T  </i>
   <i type="logical" name="ORBITALMAG"> F  </i>
   <i type="logical" name="LMAGBLOCH"> F  </i>
   <i type="logical" name="LCHIMAG"> F  </i>
   <i type="logical" name="LGAUGE"> T  </i>
   <i type="int" name="MAGATOM">     0</i>
   <v name="MAGDIPOL">      0.00000000      0.00000000      0.00000000</v>
   <v name="AVECCONST">      0.00000000      0.00000000      0.00000000</v>
  </separator>
  <separator name="response functions" >
   <i type="logical" name="LADDER"> F  </i>
   <i type="logical" name="LFXC"> F  </i>
   <i type="logical" name="LHARTREE"> T  </i>
   <i type="int" name="IBSE">     0</i>
   <v type="int" name="KPOINT">    -1     0     0     0</v>
   <i type="logical" name="LTCTE"> F  </i>
   <i type="logical" name="LTETE"> F  </i>
   <i type="logical" name="LTRIPLET"> F  </i>
   <i type="logical" name="LFXCEPS"> F  </i>
   <i type="logical" name="LFXHEG"> F  </i>
   <i type="int" name="NATURALO">     0</i>
   <i type="logical" name="L2ORDER"> F  </i>
   <i type="logical" name="LUSEW"> F  </i>
   <i name="ENCUTGW">     -2.00000000</i>
   <i name="ENCUTGWSOFT">     -2.00000000</i>
   <i name="ENCUTLF">     -1.00000000</i>
   <i type="int" name="LMAXMP2">    -1</i>
   <i name="SCISSOR">      0.00000000</i>
   <i type="int" name="NOMEGA">     0</i>
   <i type="int" name="NOMEGAR">     0</i>
   <i type="int" name="NBANDSGW">    -1</i>
   <i type="int" name="NBANDSO">    -1</i>
   <i type="int" name="NBANDSV">    -1</i>
   <i type="int" name="NELM">     1</i>
   <i type="int" name="NELMHF">     1</i>
   <i type="int" name="DIM">     3</i>
   <i type="int" name="ANTIRES">     0</i>
   <i name="OMEGAMAX">    -30.00000000</i>
   <i name="OMEGAMIN">    -30.00000000</i>
   <i name="OMEGATL">   -200.00000000</i>
   <i type="int" name="OMEGAGRID">     0</i>
   <i name="CSHIFT">     -0.10000000</i>
   <i type="logical" name="SELFENERGY"> F  </i>
   <i type="logical" name="LSPECTRAL"> F  </i>
   <i type="logical" name="LSPECTRALGW"> F  </i>
   <i type="logical" name="LSINGLES"> F  </i>
   <i type="logical" name="LFERMIGW"> F  </i>
   <i type="logical" name="ODDONLYGW"> F  </i>
   <i type="logical" name="EVENONLYGW"> F  </i>
   <i type="int" name="NKREDLFX">     1</i>
   <i type="int" name="NKREDLFY">     1</i>
   <i type="int" name="NKREDLFZ">     1</i>
   <i type="int" name="MAXMEM">  1800</i>
   <i type="int" name="TELESCOPE">     0</i>
   <i type="int" name="TAUPAR">     1</i>
   <i type="int" name="OMEGAPAR">    -1</i>
   <i name="LAMBDA">      1.00000000</i>
  </separator>
  <separator name="External order field" >
   <i name="OFIELD_KAPPA">      0.00000000</i>
   <v name="OFIELD_K">      0.00000000      0.00000000      0.00000000</v>
   <i name="OFIELD_Q6_NEAR">      0.00000000</i>
   <i name="OFIELD_Q6_FAR">      0.00000000</i>
   <i name="OFIELD_A">      0.00000000</i>
  </separator>
 </parameters>
 <atominfo>
  <atoms>       8 </atoms>
  <types>       1 </types>
  <array name="atoms" >
   <dimension dim="1">ion</dimension>
   <field type="string">element</field>
   <field type="int">atomtype</field>
   <set>
    <rc><c>Si</c><c>   1</c></rc>
    <rc><c>Si</c><c>   1</c></rc>
    <rc><c>Si</c><c>   1</c></rc>
    <rc><c>Si</c><c>   1</c></rc>
    <rc><c>Si</c><c>   1</c></rc>
    <rc><c>Si</c><c>   1</c></rc>
    <rc><c>Si</c><c>   1</c></rc>
    <rc><c>Si</c><c>   1</c></rc>
   </set>
  </array>
  <array name="atomtypes" >
   <dimension dim="1">type</dimension>
   <field type="int">atomspertype</field>
   <field type="string">element</field>
   <field>mass</field>
   <field>valence</field>
   <field type="string">pseudopotential</field>
   <set>
    <rc><c>   8</c><c>Si</c><c>     28.08500000</c><c>      4.00000000</c><c>  PAW_PBE Si 05Jan2001                  </c></rc>
   </set>
  </array>
 </atominfo>
 <structure name="initialpos" >
  <crystal>
   <varray name="basis" >
    <v>       5.41437351       0.00000000       0.00000000 </v>
    <v>       0.00000000       5.41437351       0.00000000 </v>
    <v>       0.00000000       0.00000000       5.41437351 </v>
   </varray>
   <i name="volume">    158.72474438 </i>
   <varray name="rec_basis" >
    <v>       0.18469358       0.00000000       0.00000000 </v>
    <v>       0.00000000       0.18469358       0.00000000 </v>
    <v>       0.00000000       0.00000000       0.18469358 </v>
   </varray>
  </crystal>
  <varray name="positions" >
   <v>       0.00000000       0.00000000       0.00000000 </v>
   <v>       0.25000000       0.25000000       0.25000000 </v>
   <v>       0.50000000       0.50000000       0.00000000 </v>
   <v>       0.75000000       0.75000000       0.25000000 </v>
   <v>       0.50000000       0.00000000       0.50000000 </v>
   <v>       0.75000000       0.25000000       0.75000000 </v>
   <v>       0.00000000       0.50000000       0.50000000 </v>
   <v>       0.25000000       0.75000000       0.75000000 </v>
  </varray>
 </structure>
 <calculation>
  <scstep>
   <time name="dav">    0.86    0.92</time>
   <time name="total">    0.93    1.00</time>
   <energy>
    <i name="alphaZ">     13.57343733 </i>
    <i name="ewald">   -916.89277290 </i>
    <i name="hartreedc">    -43.48686206 </i>
    <i name="XCdc">    -74.27108112 </i>
    <i name="pawpsdc">    704.99039692 </i>
    <i name="pawaedc">   -564.24414232 </i>
    <i name="eentropy">      0.00026082 </i>
    <i name="bandstr">    113.00747267 </i>
    <i name="atom">    824.52596983 </i>
    <i name="e_fr_energy">     57.20267917 </i>
    <i name="e_wo_entrp">     57.20241836 </i>
    <i name="e_0_energy">     57.20261397 </i>
   </energy>
  </scstep>
  <scstep>
   <time name="dav">    1.00    1.03</time>
   <time name="total">    1.03    1.05</time>
   <energy>
    <i name="e_fr_energy">    -39.67864053 </i>
    <i name="e_wo_entrp">    -39.67870731 </i>
    <i name="e_0_energy">    -39.67865723 </i>
   </energy>
  </scstep>
  <scstep>
   <time name="dav">    1.00    1.02</time>
   <time name="total">    1.03    1.04</time>
   <energy>
    <i name="e_fr_energy">    -44.02546885 </i>
    <i name="e_wo_entrp">    -44.02557533 </i>
    <i name="e_0_energy">    -44.02549547 </i>
   </energy>
  </scstep>
  <scstep>
   <time name="dav">    0.97    0.97</time>
   <time name="total">    0.99    0.99</time>
   <energy>
    <i name="e_fr_energy">    -44.09654068 </i>
    <i name="e_wo_entrp">    -44.09663390 </i>
    <i name="e_0_energy">    -44.09656398 </i>
   </energy>
  </scstep>
  <scstep>
   <time name="dav">    1.03    1.04</time>
   <time name="total">    1.11    1.14</time>
   <energy>
    <i name="e_fr_energy">    -44.09816791 </i>
    <i name="e_wo_entrp">    -44.09826113 </i>
    <i name="e_0_energy">    -44.09819122 </i>
   </energy>
  </scstep>
  <scstep>
   <time name="dav">    0.93    0.93</time>
   <time name="total">    1.03    1.04</time>
   <energy>
    <i name="e_fr_energy">    -43.58375074 </i>
    <i name="e_wo_entrp">    -43.58385145 </i>
    <i name="e_0_energy">    -43.58377592 </i>
   </energy>
  </scstep>
  <scstep>
   <time name="dav">    0.93    0.93</time>
   <time name="total">    1.03    1.04</time>
   <energy>
    <i name="e_fr_energy">    -43.35169278 </i>
    <i name="e_wo_entrp">    -43.35180507 </i>
    <i name="e_0_energy">    -43.35172086 </i>
   </energy>
  </scstep>
  <scstep>
   <time name="dav">    0.96    0.95</time>
   <time name="total">    1.05    1.06</time>
   <energy>
    <i name="e_fr_energy">    -43.35592717 </i>
    <i name="e_wo_entrp">    -43.35603910 </i>
    <i name="e_0_energy">    -43.35595515 </i>
   </energy>
  </scstep>
  <scstep>
   <time name="dav">    1.01    1.02</time>
   <time name="total">    1.11    1.13</time>
   <energy>
    <i name="e_fr_energy">    -43.35672296 </i>
    <i name="e_wo_entrp">    -43.35683528 </i>
    <i name="e_0_energy">    -43.35675104 </i>
   </energy>
  </scstep>
  <scstep>
   <time name="dav">    0.92    0.92</time>
   <time name="total">    1.03    1.03</time>
   <energy>
    <i name="e_fr_energy">    -43.35693521 </i>
    <i name="e_wo_entrp">    -43.35704766 </i>
    <i name="e_0_energy">    -43.35696332 </i>
   </energy>
  </scstep>
  <scstep>
   <time name="dav">    0.73    0.73</time>
   <time name="total">    0.77    0.78</time>
   <energy>
    <i name="alphaZ">     13.57343733 </i>
    <i name="ewald">   -916.89277290 </i>
    <i name="hartreedc">    -59.25170530 </i>
    <i name="XCdc">    -71.68696216 </i>
    <i name="pawpsdc">   3541.26327089 </i>
    <i name="pawaedc">  -3401.44550331 </i>
    <i name="eentropy">      0.00011244 </i>
    <i name="bandstr">     26.55721710 </i>
    <i name="atom">    824.52596983 </i>
    <i name="e_fr_energy">    -43.35693608 </i>
    <i name="e_wo_entrp">    -43.35704852 </i>
    <i name="e_0_energy">    -43.35696419 </i>
   </energy>
  </scstep>
  <structure>
   <crystal>
    <varray name="basis" >
     <v>       5.41437351       0.00000000       0.00000000 </v>
     <v>       0.00000000       5.41437351       0.00000000 </v>
     <v>       0.00000000       0.00000000       5.41437351 </v>
    </varray>
    <i name="volume">    158.72474438 </i>
    <varray name="rec_basis" >
     <v>       0.18469358       0.00000000       0.00000000 </v>
     <v>       0.00000000       0.18469358       0.00000000 </v>
     <v>       0.00000000       0.00000000       0.18469358 </v>
    </varray>
   </crystal>
   <varray name="positions" >
    <v>       0.00000000       0.00000000       0.00000000 </v>
    <v>       0.25000000       0.25000000       0.25000000 </v>
    <v>       0.50000000       0.50000000       0.00000000 </v>
    <v>       0.75000000       0.75000000       0.25000000 </v>
    <v>       0.50000000       0.00000000       0.50000000 </v>
    <v>       0.75000000       0.25000000       0.75000000 </v>
    <v>       0.00000000       0.50000000       0.50000000 </v>
    <v>       0.25000000       0.75000000       0.75000000 </v>
   </varray>
  </structure>
  <varray name="forces" >
   <v>       0.00000000       0.00000000       0.00000000 </v>
   <v>       0.00000000       0.00000000       0.00000000 </v>
   <v>       0.00000000       0.00000000       0.00000000 </v>
   <v>       0.00000000       0.00000000       0.00000000 </v>
   <v>       0.00000000       0.00000000       0.00000000 </v>
   <v>       0.00000000       0.00000000       0.00000000 </v>
   <v>       0.00000000       0.00000000       0.00000000 </v>
   <v>       0.00000000       0.00000000       0.00000000 </v>
  </varray>
  <varray name="stress" >
   <v>      28.32015668       0.00000000       0.00000000 </v>
   <v>       0.00000000      28.32015668       0.00000000 </v>
   <v>       0.00000000       0.00000000      28.32015668 </v>
  </varray>
  <energy>
   <i name="e_fr_energy">    -43.35693608 </i>
   <i name="e_wo_entrp">    -43.35696419 </i>
   <i name="e_0_energy">      0.00011244 </i>
  </energy>
  <time name="totalsc">   12.95   13.20</time>
  <eigenvalues>
   <array>
    <dimension dim="1">band</dimension>
    <dimension dim="2">kpoint</dimension>
    <dimension dim="3">spin</dimension>
    <field>eigene</field>
    <field>occ</field>
    <set>
     <set comment="spin 1">
      <set comment="kpoint 1">
       <r>   -6.1025    1.0000 </r>
       <r>   -1.9251    1.0000 </r>
       <r>   -1.9251    1.0000 </r>
       <r>   -1.9251    1.0000 </r>
       <r>   -1.9251    1.0000 </r>
       <r>   -1.9251    1.0000 </r>
       <r>   -1.9251    1.0000 </r>
       <r>    3.0446    1.0000 </r>
       <r>    3.0446    1.0000 </r>
       <r>    3.0446    1.0000 </r>
       <r>    3.0446    1.0000 </r>
       <r>    3.0446    1.0000 </r>
       <r>    3.0446    1.0000 </r>
       <r>    5.9173    0.8349 </r>
       <r>    5.9173    0.8349 </r>
       <r>    5.9173    0.8349 </r>
       <r>    6.6106    0.0000 </r>
       <r>    6.6106    0.0000 </r>
       <r>    6.6106    0.0000 </r>
       <r>    6.6106    0.0000 </r>
       <r>    6.6106    0.0000 </r>
       <r>    6.6106    0.0000 </r>
       <r>    8.4871    0.0000 </r>
       <r>    8.4871    0.0000 </r>
      </set>
      <set comment="kpoint 2">
       <r>   -6.0480    1.0000 </r>
       <r>   -2.7574    1.0000 </r>
       <r>   -1.9071    1.0000 </r>
       <r>   -1.9071    1.0000 </r>
       <r>   -1.9071    1.0000 </r>
       <r>   -1.9071    1.0000 </r>
       <r>   -1.0282    1.0000 </r>
       <r>    2.8909    1.0000 </r>
       <r>    2.8909    1.0000 </r>
       <r>    2.8909    1.0000 </r>
       <r>    2.8909    1.0000 </r>
       <r>    3.0936    1.0000 </r>
       <r>    3.0936    1.0000 </r>
       <r>    5.5826    1.0000 </r>
       <r>    5.7023    0.9979 </r>
       <r>    5.7023    0.9979 </r>
       <r>    6.4850    0.0000 </r>
       <r>    6.8831    0.0000 </r>
       <r>    6.9010    0.0000 </r>
       <r>    6.9010    0.0000 </r>
       <r>    6.9010    0.0000 </r>
       <r>    6.9010    0.0000 </r>
       <r>    8.3570    0.0000 </r>
       <r>    8.7691    0.0000 </r>
      </set>
      <set comment="kpoint 3">
       <r>   -5.8850    1.0000 </r>
       <r>   -3.5132    1.0000 </r>
       <r>   -1.8597    1.0000 </r>
       <r>   -1.8597    1.0000 </r>
       <r>   -1.8597    1.0000 </r>
       <r>   -1.8597    1.0000 </r>
       <r>   -0.0805    1.0000 </r>
       <r>    2.5585    1.0000 </r>
       <r>    2.5585    1.0000 </r>
       <r>    2.5585    1.0000 </r>
       <r>    2.5585    1.0000 </r>
       <r>    3.2401    1.0000 </r>
       <r>    3.2401    1.0000 </r>
       <r>    4.8166    1.0000 </r>
       <r>    5.2333    1.0000 </r>
       <r>    5.2333    1.0000 </r>
       <r>    6.4963    0.0000 </r>
       <r>    7.3107    0.0000 </r>
       <r>    7.6477    0.0000 </r>
       <r>    7.6477    0.0000 </r>
       <r>    7.6477    0.0000 </r>
       <r>    7.6477    0.0000 </r>
       <r>    8.0294    0.0000 </r>
       <r>    9.4376    0.0000 </r>
      </set>
      <set comment="kpoint 4">
       <r>   -5.6145    1.0000 </r>
       <r>   -4.1831    1.0000 </r>
       <r>   -1.8024    1.0000 </r>
       <r>   -1.8024    1.0000 </r>
       <r>   -1.8024    1.0000 </r>
       <r>   -1.8024    1.0000 </r>
       <r>    0.9020    1.0000 </r>
       <r>    2.2405    1.0000 </r>
       <r>    2.2405    1.0000 </r>
       <r>    2.2405    1.0000 </r>
       <r>    2.2405    1.0000 </r>
       <r>    3.4819    1.0000 </r>
       <r>    3.4819    1.0000 </r>
       <r>    3.8892    1.0000 </r>
       <r>    4.7146    1.0000 </r>
       <r>    4.7146    1.0000 </r>
       <r>    6.6331    0.0000 </r>
       <r>    7.6210    0.0000 </r>
       <r>    7.8974    0.0000 </r>
       <r>    8.6661    0.0000 </r>
       <r>    8.6661    0.0000 </r>
       <r>    8.6661    0.0000 </r>
       <r>    8.6661    0.0000 </r>
       <r>   10.2837    0.0000 </r>
      </set>
      <set comment="kpoint 5">
       <r>   -5.2386    1.0000 </r>
       <r>   -4.7601    1.0000 </r>
       <r>   -1.7628    1.0000 </r>
       <r>   -1.7628    1.0000 </r>
       <r>   -1.7628    1.0000 </r>
       <r>   -1.7628    1.0000 </r>
       <r>    1.9028    1.0000 </r>
       <r>    2.0543    1.0000 </r>
       <r>    2.0543    1.0000 </r>
       <r>    2.0543    1.0000 </r>
       <r>    2.0543    1.0000 </r>
       <r>    2.9052    1.0000 </r>
       <r>    3.8146    1.0000 </r>
       <r>    3.8146    1.0000 </r>
       <r>    4.2306    1.0000 </r>
       <r>    4.2306    1.0000 </r>
       <r>    6.8810    0.0000 </r>
       <r>    7.2207    0.0000 </r>
       <r>    8.6347    0.0000 </r>
       <r>    9.4818    0.0000 </r>
       <r>    9.8117    0.0000 </r>
       <r>    9.8117    0.0000 </r>
       <r>    9.8117    0.0000 </r>
       <r>    9.8117    0.0000 </r>
      </set>
      <set comment="kpoint 6">
       <r>   -5.9938    1.0000 </r>
       <r>   -2.7267    1.0000 </r>
       <r>   -2.7267    1.0000 </r>
       <r>   -1.9769    1.0000 </r>
       <r>   -1.8076    1.0000 </r>
       <r>   -1.0297    1.0000 </r>
       <r>   -1.0297    1.0000 </r>
       <r>    2.4691    1.0000 </r>
       <r>    2.9136    1.0000 </r>
       <r>    2.9136    1.0000 </r>
       <r>    2.9764    1.0000 </r>
       <r>    2.9764    1.0000 </r>
       <r>    3.1316    1.0000 </r>
       <r>    5.0473    1.0000 </r>
       <r>    5.4868    1.0000 </r>
       <r>    5.8680    1.0461 </r>
       <r>    6.7112    0.0000 </r>
       <r>    6.7899    0.0000 </r>
       <r>    6.7899    0.0000 </r>
       <r>    7.1547    0.0000 </r>
       <r>    7.1547    0.0000 </r>
       <r>    7.5510    0.0000 </r>
       <r>    8.5988    0.0000 </r>
       <r>    8.6912    0.0000 </r>
      </set>
      <set comment="kpoint 7">
       <r>   -5.8314    1.0000 </r>
       <r>   -3.4742    1.0000 </r>
       <r>   -2.6392    1.0000 </r>
       <r>   -2.0356    1.0000 </r>
       <r>   -1.6725    1.0000 </r>
       <r>   -1.0432    1.0000 </r>
       <r>   -0.1127    1.0000 </r>
       <r>    2.0608    1.0000 </r>
       <r>    2.5204    1.0000 </r>
       <r>    2.7312    1.0000 </r>
       <r>    3.0415    1.0000 </r>
       <r>    3.0653    1.0000 </r>
       <r>    3.1722    1.0000 </r>
       <r>    4.3097    1.0000 </r>
       <r>    5.0157    1.0000 </r>
       <r>    5.5751    1.0000 </r>
       <r>    6.8110    0.0000 </r>
       <r>    7.0984    0.0000 </r>
       <r>    7.5597    0.0000 </r>
       <r>    7.5601    0.0000 </r>
       <r>    7.8685    0.0000 </r>
       <r>    8.3227    0.0000 </r>
       <r>    8.4821    0.0000 </r>
       <r>    9.1352    0.0000 </r>
      </set>
      <set comment="kpoint 8">
       <r>   -5.5620    1.0000 </r>
       <r>   -4.1387    1.0000 </r>
       <r>   -2.5085    1.0000 </r>
       <r>   -2.1092    1.0000 </r>
       <r>   -1.5089    1.0000 </r>
       <r>   -1.0904    1.0000 </r>
       <r>    0.8220    1.0000 </r>
       <r>    1.7864    1.0000 </r>
       <r>    2.1193    1.0000 </r>
       <r>    2.5298    1.0000 </r>
       <r>    2.8206    1.0000 </r>
       <r>    3.2710    1.0000 </r>
       <r>    3.4802    1.0000 </r>
       <r>    3.5042    1.0000 </r>
       <r>    4.4944    1.0000 </r>
       <r>    5.0145    1.0000 </r>
       <r>    6.9528    0.0000 </r>
       <r>    7.9276    0.0000 </r>
       <r>    7.9321    0.0000 </r>
       <r>    8.1219    0.0000 </r>
       <r>    8.5950    0.0000 </r>
       <r>    8.8580    0.0000 </r>
       <r>    9.5845    0.0000 </r>
       <r>    9.7810    0.0000 </r>
      </set>
      <set comment="kpoint 9">
       <r>   -5.1878    1.0000 </r>
       <r>   -4.7119    1.0000 </r>
       <r>   -2.3580    1.0000 </r>
       <r>   -2.2172    1.0000 </r>
       <r>   -1.3380    1.0000 </r>
       <r>   -1.1898    1.0000 </r>
       <r>    1.7048    1.0000 </r>
       <r>    1.7500    1.0000 </r>
       <r>    1.8261    1.0000 </r>
       <r>    2.4741    1.0000 </r>
       <r>    2.5862    1.0000 </r>
       <r>    2.6489    1.0000 </r>
       <r>    3.5968    1.0000 </r>
       <r>    3.9000    1.0000 </r>
       <r>    4.0099    1.0000 </r>
       <r>    4.4228    1.0000 </r>
       <r>    7.2012    0.0000 </r>
       <r>    7.5363    0.0000 </r>
       <r>    8.8327    0.0000 </r>
       <r>    9.0183    0.0000 </r>
       <r>    9.6358    0.0000 </r>
       <r>    9.7771    0.0000 </r>
       <r>    9.8548    0.0000 </r>
       <r>   10.6029    0.0000 </r>
      </set>
      <set comment="kpoint 10">
       <r>   -5.6709    1.0000 </r>
       <r>   -3.3602    1.0000 </r>
       <r>   -3.3602    1.0000 </r>
       <r>   -2.2250    1.0000 </r>
       <r>   -1.4560    1.0000 </r>
       <r>   -0.2161    1.0000 </r>
       <r>   -0.2161    1.0000 </r>
       <r>    1.6948    1.0000 </r>
       <r>    2.6074    1.0000 </r>
       <r>    2.6074    1.0000 </r>
       <r>    3.0471    1.0000 </r>
       <r>    3.0471    1.0000 </r>
       <r>    3.3868    1.0000 </r>
       <r>    3.5947    1.0000 </r>
       <r>    4.5388    1.0000 </r>
       <r>    5.6933    0.9984 </r>
       <r>    7.0073    0.0000 </r>
       <r>    7.5941    0.0000 </r>
       <r>    7.5941    0.0000 </r>
       <r>    8.2313    0.0000 </r>
       <r>    8.2313    0.0000 </r>
       <r>    8.9333    0.0000 </r>
       <r>    8.9673    0.0000 </r>
       <r>    9.1486    0.0000 </r>
      </set>
      <set comment="kpoint 11">
       <r>   -5.4050    1.0000 </r>
       <r>   -4.0070    1.0000 </r>
       <r>   -3.1801    1.0000 </r>
       <r>   -2.4461    1.0000 </r>
       <r>   -1.2049    1.0000 </r>
       <r>   -0.3985    1.0000 </r>
       <r>    0.5951    1.0000 </r>
       <r>    1.5221    1.0000 </r>
       <r>    2.1506    1.0000 </r>
       <r>    2.8107    1.0000 </r>
       <r>    2.8616    1.0000 </r>
       <r>    2.9921    1.0000 </r>
       <r>    3.4015    1.0000 </r>
       <r>    3.5076    1.0000 </r>
       <r>    4.0128    1.0000 </r>
       <r>    5.3487    1.0000 </r>
       <r>    7.4808    0.0000 </r>
       <r>    7.7397    0.0000 </r>
       <r>    8.6353    0.0000 </r>
       <r>    8.6635    0.0000 </r>
       <r>    8.7429    0.0000 </r>
       <r>    9.1789    0.0000 </r>
       <r>    9.2565    0.0000 </r>
       <r>    9.9646    0.0000 </r>
      </set>
      <set comment="kpoint 12">
       <r>   -5.0362    1.0000 </r>
       <r>   -4.5684    1.0000 </r>
       <r>   -2.9504    1.0000 </r>
       <r>   -2.6957    1.0000 </r>
       <r>   -0.9275    1.0000 </r>
       <r>   -0.6469    1.0000 </r>
       <r>    1.3744    1.0000 </r>
       <r>    1.5576    1.0000 </r>
       <r>    1.7807    1.0000 </r>
       <r>    2.1248    1.0000 </r>
       <r>    3.0636    1.0000 </r>
       <r>    3.1214    1.0000 </r>
       <r>    3.2340    1.0000 </r>
       <r>    3.5281    1.0000 </r>
       <r>    4.0929    1.0000 </r>
       <r>    4.7451    1.0000 </r>
       <r>    7.9820    0.0000 </r>
       <r>    8.3010    0.0000 </r>
       <r>    8.3837    0.0000 </r>
       <r>    9.3957    0.0000 </r>
       <r>    9.4894    0.0000 </r>
       <r>    9.7887    0.0000 </r>
       <r>    9.8250    0.0000 </r>
       <r>   10.3071    0.0000 </r>
      </set>
      <set comment="kpoint 13">
       <r>   -5.1454    1.0000 </r>
       <r>   -3.7940    1.0000 </r>
       <r>   -3.7940    1.0000 </r>
       <r>   -2.8089    1.0000 </r>
       <r>   -0.8730    1.0000 </r>
       <r>    0.2625    1.0000 </r>
       <r>    0.2625    1.0000 </r>
       <r>    1.4653    1.0000 </r>
       <r>    2.1953    1.0000 </r>
       <r>    2.3181    1.0000 </r>
       <r>    2.3181    1.0000 </r>
       <r>    3.4845    1.0000 </r>
       <r>    3.6039    1.0000 </r>
       <r>    3.6039    1.0000 </r>
       <r>    3.7908    1.0000 </r>
       <r>    5.3504    1.0000 </r>
       <r>    7.4772    0.0000 </r>
       <r>    8.7759    0.0000 </r>
       <r>    8.7759    0.0000 </r>
       <r>    8.9889    0.0000 </r>
       <r>    9.4889    0.0000 </r>
       <r>    9.6287    0.0000 </r>
       <r>    9.6287    0.0000 </r>
       <r>    9.7809    0.0000 </r>
      </set>
      <set comment="kpoint 14">
       <r>   -4.7864    1.0000 </r>
       <r>   -4.3333    1.0000 </r>
       <r>   -3.5104    1.0000 </r>
       <r>   -3.1737    1.0000 </r>
       <r>   -0.5082    1.0000 </r>
       <r>   -0.1206    1.0000 </r>
       <r>    0.9026    1.0000 </r>
       <r>    1.5419    1.0000 </r>
       <r>    1.6006    1.0000 </r>
       <r>    1.8973    1.0000 </r>
       <r>    2.6073    1.0000 </r>
       <r>    3.0031    1.0000 </r>
       <r>    3.7536    1.0000 </r>
       <r>    3.8702    1.0000 </r>
       <r>    4.2969    1.0000 </r>
       <r>    4.9444    1.0000 </r>
       <r>    8.0155    0.0000 </r>
       <r>    8.9564    0.0000 </r>
       <r>    9.0017    0.0000 </r>
       <r>    9.1161    0.0000 </r>
       <r>    9.2882    0.0000 </r>
       <r>    9.5404    0.0000 </r>
       <r>    9.9554    0.0000 </r>
       <r>   10.2548    0.0000 </r>
      </set>
      <set comment="kpoint 15">
       <r>   -4.4430    1.0000 </r>
       <r>   -4.0138    1.0000 </r>
       <r>   -4.0138    1.0000 </r>
       <r>   -3.6214    1.0000 </r>
       <r>   -0.0634    1.0000 </r>
       <r>    0.4111    1.0000 </r>
       <r>    0.4111    1.0000 </r>
       <r>    0.9644    1.0000 </r>
       <r>    1.8087    1.0000 </r>
       <r>    2.1544    1.0000 </r>
       <r>    2.1544    1.0000 </r>
       <r>    2.5312    1.0000 </r>
       <r>    4.3041    1.0000 </r>
       <r>    4.4152    1.0000 </r>
       <r>    4.4152    1.0000 </r>
       <r>    4.8571    1.0000 </r>
       <r>    8.0684    0.0000 </r>
       <r>    8.6233    0.0000 </r>
       <r>    8.6233    0.0000 </r>
       <r>    8.6535    0.0000 </r>
       <r>   10.1516    0.0000 </r>
       <r>   10.1516    0.0000 </r>
       <r>   10.2619    0.0000 </r>
       <r>   10.5951    0.0000 </r>
      </set>
      <set comment="kpoint 16">
       <r>   -5.9397    1.0000 </r>
       <r>   -2.7017    1.0000 </r>
       <r>   -2.7017    1.0000 </r>
       <r>   -2.7017    1.0000 </r>
       <r>   -1.0339    1.0000 </r>
       <r>   -1.0339    1.0000 </r>
       <r>   -1.0339    1.0000 </r>
       <r>    2.5382    1.0000 </r>
       <r>    2.5382    1.0000 </r>
       <r>    2.5382    1.0000 </r>
       <r>    3.1798    1.0000 </r>
       <r>    3.1798    1.0000 </r>
       <r>    3.1798    1.0000 </r>
       <r>    4.5728    1.0000 </r>
       <r>    5.6779    0.9991 </r>
       <r>    5.6779    0.9991 </r>
       <r>    6.7514    0.0000 </r>
       <r>    6.7514    0.0000 </r>
       <r>    6.7514    0.0000 </r>
       <r>    7.6518    0.0000 </r>
       <r>    7.6518    0.0000 </r>
       <r>    7.6518    0.0000 </r>
       <r>    8.4888    0.0000 </r>
       <r>    8.8398    0.0000 </r>
      </set>
      <set comment="kpoint 17">
       <r>   -5.7780    1.0000 </r>
       <r>   -3.4378    1.0000 </r>
       <r>   -2.6341    1.0000 </r>
       <r>   -2.6341    1.0000 </r>
       <r>   -1.0511    1.0000 </r>
       <r>   -1.0511    1.0000 </r>
       <r>   -0.1568    1.0000 </r>
       <r>    2.1492    1.0000 </r>
       <r>    2.1492    1.0000 </r>
       <r>    2.7475    1.0000 </r>
       <r>    3.1234    1.0000 </r>
       <r>    3.1234    1.0000 </r>
       <r>    3.3238    1.0000 </r>
       <r>    3.8601    1.0000 </r>
       <r>    5.2473    1.0000 </r>
       <r>    5.4807    1.0000 </r>
       <r>    6.8746    0.0000 </r>
       <r>    7.1530    0.0000 </r>
       <r>    7.1530    0.0000 </r>
       <r>    7.9497    0.0000 </r>
       <r>    8.4450    0.0000 </r>
       <r>    8.5608    0.0000 </r>
       <r>    8.5608    0.0000 </r>
       <r>    8.8845    0.0000 </r>
      </set>
      <set comment="kpoint 18">
       <r>   -5.5098    1.0000 </r>
       <r>   -4.0956    1.0000 </r>
       <r>   -2.5481    1.0000 </r>
       <r>   -2.5481    1.0000 </r>
       <r>   -1.0851    1.0000 </r>
       <r>   -1.0851    1.0000 </r>
       <r>    0.7176    1.0000 </r>
       <r>    1.8815    1.0000 </r>
       <r>    1.8815    1.0000 </r>
       <r>    2.9123    1.0000 </r>
       <r>    2.9123    1.0000 </r>
       <r>    3.1020    1.0000 </r>
       <r>    3.1171    1.0000 </r>
       <r>    3.5609    1.0000 </r>
       <r>    4.7563    1.0000 </r>
       <r>    4.9009    1.0000 </r>
       <r>    7.0843    0.0000 </r>
       <r>    7.9857    0.0000 </r>
       <r>    7.9857    0.0000 </r>
       <r>    8.1228    0.0000 </r>
       <r>    8.4347    0.0000 </r>
       <r>    9.4961    0.0000 </r>
       <r>    9.6507    0.0000 </r>
       <r>    9.6507    0.0000 </r>
      </set>
      <set comment="kpoint 19">
       <r>   -5.1375    1.0000 </r>
       <r>   -4.6645    1.0000 </r>
       <r>   -2.4849    1.0000 </r>
       <r>   -2.4849    1.0000 </r>
       <r>   -1.1182    1.0000 </r>
       <r>   -1.1182    1.0000 </r>
       <r>    1.5597    1.0000 </r>
       <r>    1.7590    1.0000 </r>
       <r>    1.7590    1.0000 </r>
       <r>    2.3560    1.0000 </r>
       <r>    2.7474    1.0000 </r>
       <r>    2.7474    1.0000 </r>
       <r>    3.6018    1.0000 </r>
       <r>    3.8861    1.0000 </r>
       <r>    4.2244    1.0000 </r>
       <r>    4.2904    1.0000 </r>
       <r>    7.3759    0.0000 </r>
       <r>    7.7337    0.0000 </r>
       <r>    9.0660    0.0000 </r>
       <r>    9.0660    0.0000 </r>
       <r>    9.0879    0.0000 </r>
       <r>    9.8088    0.0000 </r>
       <r>   10.2799    0.0000 </r>
       <r>   10.2799    0.0000 </r>
      </set>
      <set comment="kpoint 20">
       <r>   -5.6183    1.0000 </r>
       <r>   -3.3327    1.0000 </r>
       <r>   -3.3327    1.0000 </r>
       <r>   -2.6344    1.0000 </r>
       <r>   -1.0633    1.0000 </r>
       <r>   -0.2901    1.0000 </r>
       <r>   -0.2901    1.0000 </r>
       <r>    1.8323    1.0000 </r>
       <r>    2.4116    1.0000 </r>
       <r>    2.4116    1.0000 </r>
       <r>    3.1662    1.0000 </r>
       <r>    3.3013    1.0000 </r>
       <r>    3.3013    1.0000 </r>
       <r>    3.4322    1.0000 </r>
       <r>    4.9046    1.0000 </r>
       <r>    5.5674    1.0000 </r>
       <r>    7.0715    0.0000 </r>
       <r>    7.3130    0.0000 </r>
       <r>    7.3130    0.0000 </r>
       <r>    8.4711    0.0000 </r>
       <r>    8.7996    0.0000 </r>
       <r>    8.7996    0.0000 </r>
       <r>    9.0548    0.0000 </r>
       <r>    9.4069    0.0000 </r>
      </set>
      <set comment="kpoint 21">
       <r>   -5.3540    1.0000 </r>
       <r>   -3.9687    1.0000 </r>
       <r>   -3.1718    1.0000 </r>
       <r>   -2.6800    1.0000 </r>
       <r>   -1.0393    1.0000 </r>
       <r>   -0.4988    1.0000 </r>
       <r>    0.4384    1.0000 </r>
       <r>    1.7035    1.0000 </r>
       <r>    2.1406    1.0000 </r>
       <r>    2.4688    1.0000 </r>
       <r>    2.8261    1.0000 </r>
       <r>    3.1977    1.0000 </r>
       <r>    3.4542    1.0000 </r>
       <r>    3.6116    1.0000 </r>
       <r>    4.3909    1.0000 </r>
       <r>    5.2456    1.0000 </r>
       <r>    7.5420    0.0000 </r>
       <r>    7.5665    0.0000 </r>
       <r>    8.1428    0.0000 </r>
       <r>    8.5373    0.0000 </r>
       <r>    9.1549    0.0000 </r>
       <r>    9.2041    0.0000 </r>
       <r>    9.8475    0.0000 </r>
       <r>    9.9440    0.0000 </r>
      </set>
      <set comment="kpoint 22">
       <r>   -4.9876    1.0000 </r>
       <r>   -4.5237    1.0000 </r>
       <r>   -2.9809    1.0000 </r>
       <r>   -2.8012    1.0000 </r>
       <r>   -0.9306    1.0000 </r>
       <r>   -0.7342    1.0000 </r>
       <r>    1.1252    1.0000 </r>
       <r>    1.7499    1.0000 </r>
       <r>    1.7925    1.0000 </r>
       <r>    1.9156    1.0000 </r>
       <r>    3.1913    1.0000 </r>
       <r>    3.3117    1.0000 </r>
       <r>    3.3315    1.0000 </r>
       <r>    3.8600    1.0000 </r>
       <r>    4.0729    1.0000 </r>
       <r>    4.6618    1.0000 </r>
       <r>    7.8931    0.0000 </r>
       <r>    8.2555    0.0000 </r>
       <r>    8.4373    0.0000 </r>
       <r>    9.2014    0.0000 </r>
       <r>    9.6031    0.0000 </r>
       <r>    9.7375    0.0000 </r>
       <r>    9.7683    0.0000 </r>
       <r>   10.4582    0.0000 </r>
      </set>
      <set comment="kpoint 23">
       <r>   -5.0965    1.0000 </r>
       <r>   -3.7655    1.0000 </r>
       <r>   -3.7655    1.0000 </r>
       <r>   -2.9101    1.0000 </r>
       <r>   -0.9009    1.0000 </r>
       <r>    0.0653    1.0000 </r>
       <r>    0.0653    1.0000 </r>
       <r>    1.7143    1.0000 </r>
       <r>    1.8154    1.0000 </r>
       <r>    2.5017    1.0000 </r>
       <r>    2.5017    1.0000 </r>
       <r>    3.6811    1.0000 </r>
       <r>    3.6811    1.0000 </r>
       <r>    3.8299    1.0000 </r>
       <r>    3.8865    1.0000 </r>
       <r>    5.2970    1.0000 </r>
       <r>    7.5376    0.0000 </r>
       <r>    8.3908    0.0000 </r>
       <r>    8.3908    0.0000 </r>
       <r>    8.6822    0.0000 </r>
       <r>    9.4355    0.0000 </r>
       <r>    9.7193    0.0000 </r>
       <r>   10.0519    0.0000 </r>
       <r>   10.0519    0.0000 </r>
      </set>
      <set comment="kpoint 24">
       <r>   -4.7411    1.0000 </r>
       <r>   -4.2942    1.0000 </r>
       <r>   -3.5011    1.0000 </r>
       <r>   -3.2018    1.0000 </r>
       <r>   -0.6539    1.0000 </r>
       <r>   -0.3187    1.0000 </r>
       <r>    0.6214    1.0000 </r>
       <r>    1.1989    1.0000 </r>
       <r>    1.8849    1.0000 </r>
       <r>    2.1664    1.0000 </r>
       <r>    2.9200    1.0000 </r>
       <r>    3.3847    1.0000 </r>
       <r>    3.8080    1.0000 </r>
       <r>    3.9119    1.0000 </r>
       <r>    4.3022    1.0000 </r>
       <r>    4.9154    1.0000 </r>
       <r>    8.0662    0.0000 </r>
       <r>    8.6942    0.0000 </r>
       <r>    8.8386    0.0000 </r>
       <r>    8.9951    0.0000 </r>
       <r>    9.2838    0.0000 </r>
       <r>    9.4493    0.0000 </r>
       <r>    9.5440    0.0000 </r>
       <r>   10.4031    0.0000 </r>
      </set>
      <set comment="kpoint 25">
       <r>   -4.4037    1.0000 </r>
       <r>   -3.9849    1.0000 </r>
       <r>   -3.9849    1.0000 </r>
       <r>   -3.6118    1.0000 </r>
       <r>   -0.2963    1.0000 </r>
       <r>    0.1347    1.0000 </r>
       <r>    0.1347    1.0000 </r>
       <r>    0.6401    1.0000 </r>
       <r>    2.1465    1.0000 </r>
       <r>    2.5043    1.0000 </r>
       <r>    2.5043    1.0000 </r>
       <r>    2.9178    1.0000 </r>
       <r>    4.3299    1.0000 </r>
       <r>    4.4335    1.0000 </r>
       <r>    4.4335    1.0000 </r>
       <r>    4.8553    1.0000 </r>
       <r>    8.1064    0.0000 </r>
       <r>    8.6080    0.0000 </r>
       <r>    8.6327    0.0000 </r>
       <r>    8.6327    0.0000 </r>
       <r>    9.7376    0.0000 </r>
       <r>    9.7376    0.0000 </r>
       <r>   10.0277    0.0000 </r>
       <r>   10.1113    0.0000 </r>
      </set>
      <set comment="kpoint 26">
       <r>   -5.4613    1.0000 </r>
       <r>   -3.2580    1.0000 </r>
       <r>   -3.2580    1.0000 </r>
       <r>   -3.2580    1.0000 </r>
       <r>   -0.4843    1.0000 </r>
       <r>   -0.4843    1.0000 </r>
       <r>   -0.4843    1.0000 </r>
       <r>    2.2347    1.0000 </r>
       <r>    2.2347    1.0000 </r>
       <r>    2.2347    1.0000 </r>
       <r>    2.4852    1.0000 </r>
       <r>    3.5673    1.0000 </r>
       <r>    3.5673    1.0000 </r>
       <r>    3.5673    1.0000 </r>
       <r>    5.2511    1.0000 </r>
       <r>    5.2511    1.0000 </r>
       <r>    7.2604    0.0000 </r>
       <r>    7.2604    0.0000 </r>
       <r>    7.2604    0.0000 </r>
       <r>    8.0848    0.0000 </r>
       <r>    9.3694    0.0000 </r>
       <r>    9.3694    0.0000 </r>
       <r>    9.7700    0.0000 </r>
       <r>    9.7700    0.0000 </r>
      </set>
      <set comment="kpoint 27">
       <r>   -5.2018    1.0000 </r>
       <r>   -3.8577    1.0000 </r>
       <r>   -3.1623    1.0000 </r>
       <r>   -3.1623    1.0000 </r>
       <r>   -0.7147    1.0000 </r>
       <r>   -0.7147    1.0000 </r>
       <r>    0.0723    1.0000 </r>
       <r>    1.8159    1.0000 </r>
       <r>    2.1896    1.0000 </r>
       <r>    2.1896    1.0000 </r>
       <r>    2.8562    1.0000 </r>
       <r>    3.6147    1.0000 </r>
       <r>    3.6147    1.0000 </r>
       <r>    3.7880    1.0000 </r>
       <r>    4.8526    1.0000 </r>
       <r>    5.0393    1.0000 </r>
       <r>    7.5580    0.0000 </r>
       <r>    7.7209    0.0000 </r>
       <r>    7.7209    0.0000 </r>
       <r>    8.2000    0.0000 </r>
       <r>    9.1914    0.0000 </r>
       <r>    9.8010    0.0000 </r>
       <r>   10.1155    0.0000 </r>
       <r>   10.7422    0.0000 </r>
      </set>
      <set comment="kpoint 28">
       <r>   -4.8433    1.0000 </r>
       <r>   -4.3920    1.0000 </r>
       <r>   -3.0916    1.0000 </r>
       <r>   -3.0916    1.0000 </r>
       <r>   -0.8712    1.0000 </r>
       <r>   -0.8712    1.0000 </r>
       <r>    0.6203    1.0000 </r>
       <r>    1.1945    1.0000 </r>
       <r>    2.2077    1.0000 </r>
       <r>    2.2077    1.0000 </r>
       <r>    3.5557    1.0000 </r>
       <r>    3.5557    1.0000 </r>
       <r>    3.6116    1.0000 </r>
       <r>    4.0868    1.0000 </r>
       <r>    4.3929    1.0000 </r>
       <r>    4.4498    1.0000 </r>
       <r>    7.9265    0.0000 </r>
       <r>    8.2556    0.0000 </r>
       <r>    8.5929    0.0000 </r>
       <r>    8.5929    0.0000 </r>
       <r>    9.4459    0.0000 </r>
       <r>    9.7084    0.0000 </r>
       <r>    9.7084    0.0000 </r>
       <r>   10.2666    0.0000 </r>
      </set>
      <set comment="kpoint 29">
       <r>   -4.9512    1.0000 </r>
       <r>   -3.6881    1.0000 </r>
       <r>   -3.6881    1.0000 </r>
       <r>   -3.1940    1.0000 </r>
       <r>   -0.8820    1.0000 </r>
       <r>   -0.3386    1.0000 </r>
       <r>   -0.3386    1.0000 </r>
       <r>    1.1763    1.0000 </r>
       <r>    2.3319    1.0000 </r>
       <r>    2.8444    1.0000 </r>
       <r>    2.8444    1.0000 </r>
       <r>    3.8937    1.0000 </r>
       <r>    3.8937    1.0000 </r>
       <r>    3.9451    1.0000 </r>
       <r>    4.5352    1.0000 </r>
       <r>    5.1430    1.0000 </r>
       <r>    7.7111    0.0000 </r>
       <r>    7.9981    0.0000 </r>
       <r>    7.9981    0.0000 </r>
       <r>    8.0856    0.0000 </r>
       <r>    9.3728    0.0000 </r>
       <r>    9.6102    0.0000 </r>
       <r>   10.1757    0.0000 </r>
       <r>   10.1757    0.0000 </r>
      </set>
      <set comment="kpoint 30">
       <r>   -4.6078    1.0000 </r>
       <r>   -4.1810    1.0000 </r>
       <r>   -3.4885    1.0000 </r>
       <r>   -3.3065    1.0000 </r>
       <r>   -0.8794    1.0000 </r>
       <r>   -0.6819    1.0000 </r>
       <r>    0.0947    1.0000 </r>
       <r>    0.5987    1.0000 </r>
       <r>    2.5327    1.0000 </r>
       <r>    2.7293    1.0000 </r>
       <r>    3.5086    1.0000 </r>
       <r>    3.9747    1.0000 </r>
       <r>    4.0366    1.0000 </r>
       <r>    4.0688    1.0000 </r>
       <r>    4.3122    1.0000 </r>
       <r>    4.8210    1.0000 </r>
       <r>    8.2048    0.0000 </r>
       <r>    8.3032    0.0000 </r>
       <r>    8.3325    0.0000 </r>
       <r>    8.8013    0.0000 </r>
       <r>    9.1180    0.0000 </r>
       <r>    9.2337    0.0000 </r>
       <r>    9.5130    0.0000 </r>
       <r>    9.8927    0.0000 </r>
      </set>
      <set comment="kpoint 31">
       <r>   -4.2900    1.0000 </r>
       <r>   -3.9066    1.0000 </r>
       <r>   -3.9066    1.0000 </r>
       <r>   -3.5984    1.0000 </r>
       <r>   -0.7011    1.0000 </r>
       <r>   -0.3621    1.0000 </r>
       <r>   -0.3621    1.0000 </r>
       <r>    0.0710    1.0000 </r>
       <r>    2.8702    1.0000 </r>
       <r>    3.2112    1.0000 </r>
       <r>    3.2112    1.0000 </r>
       <r>    3.6555    1.0000 </r>
       <r>    4.4029    1.0000 </r>
       <r>    4.4823    1.0000 </r>
       <r>    4.4823    1.0000 </r>
       <r>    4.8435    1.0000 </r>
       <r>    8.1896    0.0000 </r>
       <r>    8.3517    0.0000 </r>
       <r>    8.5581    0.0000 </r>
       <r>    8.5581    0.0000 </r>
       <r>    9.2294    0.0000 </r>
       <r>    9.2294    0.0000 </r>
       <r>    9.5663    0.0000 </r>
       <r>    9.6370    0.0000 </r>
      </set>
      <set comment="kpoint 32">
       <r>   -4.7141    1.0000 </r>
       <r>   -3.5889    1.0000 </r>
       <r>   -3.5889    1.0000 </r>
       <r>   -3.5889    1.0000 </r>
       <r>   -0.7188    1.0000 </r>
       <r>   -0.7188    1.0000 </r>
       <r>   -0.7188    1.0000 </r>
       <r>    0.5595    1.0000 </r>
       <r>    3.1251    1.0000 </r>
       <r>    3.1251    1.0000 </r>
       <r>    3.1251    1.0000 </r>
       <r>    4.1290    1.0000 </r>
       <r>    4.1290    1.0000 </r>
       <r>    4.1290    1.0000 </r>
       <r>    4.9114    1.0000 </r>
       <r>    4.9114    1.0000 </r>
       <r>    7.7153    0.0000 </r>
       <r>    7.9619    0.0000 </r>
       <r>    7.9619    0.0000 </r>
       <r>    7.9619    0.0000 </r>
       <r>    9.4275    0.0000 </r>
       <r>    9.4275    0.0000 </r>
       <r>   10.0593    0.0000 </r>
       <r>   10.0593    0.0000 </r>
      </set>
      <set comment="kpoint 33">
       <r>   -4.3941    1.0000 </r>
       <r>   -4.0084    1.0000 </r>
       <r>   -3.5155    1.0000 </r>
       <r>   -3.5155    1.0000 </r>
       <r>   -0.9460    1.0000 </r>
       <r>   -0.9460    1.0000 </r>
       <r>   -0.4100    1.0000 </r>
       <r>    0.0227    1.0000 </r>
       <r>    3.2841    1.0000 </r>
       <r>    3.2841    1.0000 </r>
       <r>    3.9538    1.0000 </r>
       <r>    4.2462    1.0000 </r>
       <r>    4.2462    1.0000 </r>
       <r>    4.3680    1.0000 </r>
       <r>    4.6397    1.0000 </r>
       <r>    4.6542    1.0000 </r>
       <r>    7.9013    0.0000 </r>
       <r>    8.1420    0.0000 </r>
       <r>    8.3457    0.0000 </r>
       <r>    8.3457    0.0000 </r>
       <r>    9.2089    0.0000 </r>
       <r>    9.2742    0.0000 </r>
       <r>    9.2742    0.0000 </r>
       <r>    9.3310    0.0000 </r>
      </set>
      <set comment="kpoint 34">
       <r>   -4.1165    1.0000 </r>
       <r>   -3.8062    1.0000 </r>
       <r>   -3.8062    1.0000 </r>
       <r>   -3.6242    1.0000 </r>
       <r>   -0.9891    1.0000 </r>
       <r>   -0.7939    1.0000 </r>
       <r>   -0.7939    1.0000 </r>
       <r>   -0.4558    1.0000 </r>
       <r>    3.6918    1.0000 </r>
       <r>    3.9428    1.0000 </r>
       <r>    3.9428    1.0000 </r>
       <r>    4.3747    1.0000 </r>
       <r>    4.5099    1.0000 </r>
       <r>    4.5464    1.0000 </r>
       <r>    4.5464    1.0000 </r>
       <r>    4.8073    1.0000 </r>
       <r>    7.8330    0.0000 </r>
       <r>    8.1555    0.0000 </r>
       <r>    8.1614    0.0000 </r>
       <r>    8.1614    0.0000 </r>
       <r>    9.1292    0.0000 </r>
       <r>    9.1292    0.0000 </r>
       <r>    9.3446    0.0000 </r>
       <r>    9.3634    0.0000 </r>
      </set>
      <set comment="kpoint 35">
       <r>   -3.9137    1.0000 </r>
       <r>   -3.7319    1.0000 </r>
       <r>   -3.7319    1.0000 </r>
       <r>   -3.7319    1.0000 </r>
       <r>   -1.0433    1.0000 </r>
       <r>   -1.0433    1.0000 </r>
       <r>   -1.0433    1.0000 </r>
       <r>   -0.8489    1.0000 </r>
       <r>    4.4211    1.0000 </r>
       <r>    4.4211    1.0000 </r>
       <r>    4.4211    1.0000 </r>
       <r>    4.6292    1.0000 </r>
       <r>    4.6292    1.0000 </r>
       <r>    4.6292    1.0000 </r>
       <r>    4.7348    1.0000 </r>
       <r>    4.7348    1.0000 </r>
       <r>    7.5155    0.0000 </r>
       <r>    7.7692    0.0000 </r>
       <r>    7.7692    0.0000 </r>
       <r>    7.7692    0.0000 </r>
       <r>    9.1922    0.0000 </r>
       <r>    9.1922    0.0000 </r>
       <r>    9.1950    0.0000 </r>
       <r>    9.2805    0.0000 </r>
      </set>
     </set>
    </set>
   </array>
  </eigenvalues>
  <separator name="orbital magnetization" >
   <v name="MAGDIPOLOUT">      0.00000000      0.00000000      0.00000000</v>
  </separator>
  <dos>
   <i name="efermi">      5.95202744 </i>
   <total>
    <array>
     <dimension dim="1">gridpoints</dimension>
     <dimension dim="2">spin</dimension>
     <field>energy</field>
     <field>total</field>
     <field>integrated</field>
     <set>
      <set comment="spin 1">
       <r>    -7.1025     0.0000     0.0000 </r>
       <r>    -7.0397     0.0000     0.0000 </r>
       <r>    -6.9768     0.0000     0.0000 </r>
       <r>    -6.9140     0.0000     0.0000 </r>
       <r>    -6.8512     0.0000     0.0000 </r>
       <r>    -6.7884     0.0000     0.0000 </r>
       <r>    -6.7256     0.0000     0.0000 </r>
       <r>    -6.6628     0.0000     0.0000 </r>
       <r>    -6.5999     0.0000     0.0000 </r>
       <r>    -6.5371     0.0000     0.0000 </r>
       <r>    -6.4743     0.0000     0.0000 </r>
       <r>    -6.4115     0.0000     0.0000 </r>
       <r>    -6.3487     0.0002     0.0000 </r>
       <r>    -6.2859     0.0010     0.0001 </r>
       <r>    -6.2230    -0.0003     0.0001 </r>
       <r>    -6.1602    -0.0105    -0.0006 </r>
       <r>    -6.0974     0.0253     0.0010 </r>
       <r>    -6.0346     0.2449     0.0164 </r>
       <r>    -5.9718     0.4730     0.0461 </r>
       <r>    -5.9090     0.4079     0.0717 </r>
       <r>    -5.8462     0.6407     0.1119 </r>
       <r>    -5.7833     1.0887     0.1803 </r>
       <r>    -5.7205     0.6561     0.2215 </r>
       <r>    -5.6577     0.4818     0.2518 </r>
       <r>    -5.5949     1.1621     0.3248 </r>
       <r>    -5.5321     1.3565     0.4100 </r>
       <r>    -5.4693     0.9381     0.4689 </r>
       <r>    -5.4064     1.0131     0.5326 </r>
       <r>    -5.3436     1.6377     0.6355 </r>
       <r>    -5.2808     0.8480     0.6887 </r>
       <r>    -5.2180     0.7018     0.7328 </r>
       <r>    -5.1552     1.9015     0.8522 </r>
       <r>    -5.0924     1.7920     0.9648 </r>
       <r>    -5.0295     1.4697     1.0571 </r>
       <r>    -4.9667     2.0319     1.1848 </r>
       <r>    -4.9039     1.2733     1.2648 </r>
       <r>    -4.8411     0.5068     1.2966 </r>
       <r>    -4.7783     1.4886     1.3901 </r>
       <r>    -4.7155     2.5882     1.5527 </r>
       <r>    -4.6527     2.1321     1.6866 </r>
       <r>    -4.5898     2.0019     1.8124 </r>
       <r>    -4.5270     2.1773     1.9491 </r>
       <r>    -4.4642     1.3751     2.0355 </r>
       <r>    -4.4014     1.6625     2.1399 </r>
       <r>    -4.3386     2.5532     2.3003 </r>
       <r>    -4.2758     2.4439     2.4538 </r>
       <r>    -4.2129     1.5752     2.5528 </r>
       <r>    -4.1501     2.0100     2.6790 </r>
       <r>    -4.0873     2.0934     2.8105 </r>
       <r>    -4.0245     2.3733     2.9596 </r>
       <r>    -3.9617     4.2516     3.2267 </r>
       <r>    -3.8989     3.2522     3.4310 </r>
       <r>    -3.8361     2.1302     3.5648 </r>
       <r>    -3.7732     3.1607     3.7633 </r>
       <r>    -3.7104     3.0318     3.9538 </r>
       <r>    -3.6476     2.3446     4.1011 </r>
       <r>    -3.5848     2.7400     4.2732 </r>
       <r>    -3.5220     4.1429     4.5334 </r>
       <r>    -3.4592     5.1166     4.8548 </r>
       <r>    -3.3963     2.2997     4.9993 </r>
       <r>    -3.3335     1.9462     5.1215 </r>
       <r>    -3.2707     2.6659     5.2890 </r>
       <r>    -3.2079     3.6053     5.5154 </r>
       <r>    -3.1451     5.6369     5.8695 </r>
       <r>    -3.0823     3.0863     6.0634 </r>
       <r>    -3.0194     0.9008     6.1200 </r>
       <r>    -2.9566     1.7657     6.2309 </r>
       <r>    -2.8938     1.6863     6.3368 </r>
       <r>    -2.8310     0.9652     6.3975 </r>
       <r>    -2.7682     1.6078     6.4984 </r>
       <r>    -2.7054     2.9073     6.6811 </r>
       <r>    -2.6426     4.3932     6.9570 </r>
       <r>    -2.5797     3.1452     7.1546 </r>
       <r>    -2.5169     2.3404     7.3016 </r>
       <r>    -2.4541     2.6157     7.4659 </r>
       <r>    -2.3913     1.3341     7.5497 </r>
       <r>    -2.3285     0.5046     7.5814 </r>
       <r>    -2.2657     0.4149     7.6075 </r>
       <r>    -2.2028     0.8409     7.6603 </r>
       <r>    -2.1400     0.7763     7.7091 </r>
       <r>    -2.0772     0.7579     7.7567 </r>
       <r>    -2.0144     0.8855     7.8123 </r>
       <r>    -1.9516     0.7775     7.8611 </r>
       <r>    -1.8888     1.0832     7.9292 </r>
       <r>    -1.8260     1.5641     8.0274 </r>
       <r>    -1.7631     1.6172     8.1290 </r>
       <r>    -1.7003     1.0100     8.1925 </r>
       <r>    -1.6375     0.5669     8.2281 </r>
       <r>    -1.5747     0.1863     8.2398 </r>
       <r>    -1.5119     0.4939     8.2708 </r>
       <r>    -1.4491     0.7764     8.3196 </r>
       <r>    -1.3862     0.4185     8.3459 </r>
       <r>    -1.3234     0.5185     8.3784 </r>
       <r>    -1.2606     0.4503     8.4067 </r>
       <r>    -1.1978     0.7050     8.4510 </r>
       <r>    -1.1350     1.7968     8.5639 </r>
       <r>    -1.0722     5.5739     8.9140 </r>
       <r>    -1.0093     7.3861     9.3780 </r>
       <r>    -0.9465     4.9985     9.6919 </r>
       <r>    -0.8837     5.7054    10.0503 </r>
       <r>    -0.8209     4.3494    10.3235 </r>
       <r>    -0.7581     2.6264    10.4885 </r>
       <r>    -0.6953     5.2019    10.8153 </r>
       <r>    -0.6325     4.7934    11.1164 </r>
       <r>    -0.5696     1.0993    11.1854 </r>
       <r>    -0.5068     1.4766    11.2782 </r>
       <r>    -0.4440     2.9449    11.4632 </r>
       <r>    -0.3812     3.0901    11.6573 </r>
       <r>    -0.3184     4.8850    11.9641 </r>
       <r>    -0.2556     3.9691    12.2135 </r>
       <r>    -0.1927     1.3214    12.2965 </r>
       <r>    -0.1299     1.5837    12.3959 </r>
       <r>    -0.0671     1.6862    12.5019 </r>
       <r>    -0.0043     0.6894    12.5452 </r>
       <r>     0.0585     2.7391    12.7172 </r>
       <r>     0.1213     4.6221    13.0076 </r>
       <r>     0.1842     2.1109    13.1402 </r>
       <r>     0.2470     0.3468    13.1620 </r>
       <r>     0.3098     0.3705    13.1852 </r>
       <r>     0.3726     0.4037    13.2106 </r>
       <r>     0.4354     1.5719    13.3093 </r>
       <r>     0.4982     1.1244    13.3800 </r>
       <r>     0.5610     0.9986    13.4427 </r>
       <r>     0.6239     3.9716    13.6922 </r>
       <r>     0.6867     3.2681    13.8975 </r>
       <r>     0.7495     0.6943    13.9411 </r>
       <r>     0.8123     0.4362    13.9685 </r>
       <r>     0.8751     0.9016    14.0251 </r>
       <r>     0.9379     1.0546    14.0913 </r>
       <r>     1.0008     0.4855    14.1218 </r>
       <r>     1.0636    -0.0112    14.1211 </r>
       <r>     1.1264     1.1463    14.1931 </r>
       <r>     1.1892     3.0044    14.3819 </r>
       <r>     1.2520     2.1701    14.5182 </r>
       <r>     1.3148     0.2118    14.5315 </r>
       <r>     1.3776     0.3464    14.5532 </r>
       <r>     1.4405     0.4912    14.5841 </r>
       <r>     1.5033     1.0439    14.6497 </r>
       <r>     1.5661     2.6169    14.8141 </r>
       <r>     1.6289     1.7459    14.9237 </r>
       <r>     1.6917     1.9424    15.0457 </r>
       <r>     1.7545     6.0887    15.4282 </r>
       <r>     1.8174     7.8346    15.9203 </r>
       <r>     1.8802     6.4062    16.3228 </r>
       <r>     1.9430     4.0791    16.5790 </r>
       <r>     2.0058     0.7049    16.6233 </r>
       <r>     2.0686     0.6691    16.6653 </r>
       <r>     2.1314     5.2278    16.9937 </r>
       <r>     2.1943     8.9145    17.5536 </r>
       <r>     2.2571     5.1271    17.8757 </r>
       <r>     2.3199     1.5773    17.9748 </r>
       <r>     2.3827     1.6048    18.0756 </r>
       <r>     2.4455     2.8539    18.2549 </r>
       <r>     2.5083     6.8657    18.6861 </r>
       <r>     2.5711     7.4879    19.1565 </r>
       <r>     2.6340     3.3156    19.3648 </r>
       <r>     2.6968     1.7443    19.4743 </r>
       <r>     2.7596     3.5555    19.6977 </r>
       <r>     2.8224     5.1053    20.0184 </r>
       <r>     2.8852     7.0293    20.4599 </r>
       <r>     2.9480     6.2544    20.8528 </r>
       <r>     3.0109     3.5029    21.0728 </r>
       <r>     3.0737     4.0285    21.3259 </r>
       <r>     3.1365     6.4011    21.7280 </r>
       <r>     3.1993     7.3862    22.1919 </r>
       <r>     3.2621     6.4399    22.5965 </r>
       <r>     3.3249     6.2527    22.9892 </r>
       <r>     3.3878     4.9395    23.2995 </r>
       <r>     3.4506     3.8896    23.5438 </r>
       <r>     3.5134     5.5200    23.8906 </r>
       <r>     3.5762     7.4702    24.3598 </r>
       <r>     3.6390     7.7309    24.8455 </r>
       <r>     3.7018     4.2414    25.1119 </r>
       <r>     3.7646     1.8779    25.2298 </r>
       <r>     3.8275     4.0552    25.4846 </r>
       <r>     3.8903     7.7599    25.9720 </r>
       <r>     3.9531     7.8718    26.4665 </r>
       <r>     4.0159     5.5312    26.8139 </r>
       <r>     4.0787     5.5302    27.1613 </r>
       <r>     4.1415     3.5846    27.3865 </r>
       <r>     4.2044     0.9545    27.4464 </r>
       <r>     4.2672     3.3481    27.6568 </r>
       <r>     4.3300     6.4217    28.0601 </r>
       <r>     4.3928     7.0264    28.5015 </r>
       <r>     4.4556     6.9996    28.9412 </r>
       <r>     4.5184     5.2877    29.2733 </r>
       <r>     4.5812     3.3511    29.4838 </r>
       <r>     4.6441     2.8552    29.6632 </r>
       <r>     4.7069     3.0376    29.8540 </r>
       <r>     4.7697     2.5521    30.0143 </r>
       <r>     4.8325     3.8788    30.2580 </r>
       <r>     4.8953     5.2394    30.5871 </r>
       <r>     4.9581     3.9427    30.8347 </r>
       <r>     5.0210     2.3584    30.9829 </r>
       <r>     5.0838     1.6855    31.0888 </r>
       <r>     5.1466     0.5885    31.1257 </r>
       <r>     5.2094     1.2002    31.2011 </r>
       <r>     5.2722     2.9802    31.3883 </r>
       <r>     5.3350     2.4358    31.5413 </r>
       <r>     5.3979     0.8830    31.5968 </r>
       <r>     5.4607     0.4747    31.6266 </r>
       <r>     5.5235     1.1423    31.6984 </r>
       <r>     5.5863     1.5477    31.7956 </r>
       <r>     5.6491     1.1605    31.8685 </r>
       <r>     5.7119     0.9869    31.9305 </r>
       <r>     5.7747     0.4832    31.9608 </r>
       <r>     5.8376     0.0886    31.9664 </r>
       <r>     5.9004     0.3421    31.9879 </r>
       <r>     5.9632     0.2068    32.0009 </r>
       <r>     6.0260    -0.0051    32.0006 </r>
       <r>     6.0888    -0.0113    31.9999 </r>
       <r>     6.1516     0.0015    32.0000 </r>
       <r>     6.2145     0.0011    32.0000 </r>
       <r>     6.2773     0.0020    32.0002 </r>
       <r>     6.3401    -0.0077    31.9997 </r>
       <r>     6.4029    -0.0174    31.9986 </r>
       <r>     6.4657     0.1517    32.0081 </r>
       <r>     6.5285     0.3039    32.0272 </r>
       <r>     6.5914     0.2120    32.0405 </r>
       <r>     6.6542     0.2415    32.0557 </r>
       <r>     6.7170     0.5708    32.0915 </r>
       <r>     6.7798     1.4486    32.1825 </r>
       <r>     6.8426     1.8719    32.3001 </r>
       <r>     6.9054     1.9108    32.4201 </r>
       <r>     6.9682     1.3926    32.5076 </r>
       <r>     7.0311     0.8225    32.5593 </r>
       <r>     7.0939     1.8987    32.6786 </r>
       <r>     7.1567     3.0175    32.8681 </r>
       <r>     7.2195     2.3293    33.0144 </r>
       <r>     7.2823     1.6793    33.1199 </r>
       <r>     7.3451     1.9272    33.2410 </r>
       <r>     7.4080     0.9280    33.2993 </r>
       <r>     7.4708     0.6336    33.3391 </r>
       <r>     7.5336     4.4688    33.6198 </r>
       <r>     7.5964     6.6283    34.0361 </r>
       <r>     7.6592     3.3907    34.2491 </r>
       <r>     7.7220     3.2486    34.4532 </r>
       <r>     7.7848     3.2399    34.6567 </r>
       <r>     7.8477     1.7405    34.7660 </r>
       <r>     7.9105     4.0197    35.0185 </r>
       <r>     7.9733     6.4204    35.4218 </r>
       <r>     8.0361     5.3682    35.7590 </r>
       <r>     8.0989     4.8011    36.0606 </r>
       <r>     8.1617     6.7979    36.4876 </r>
       <r>     8.2246     6.3393    36.8859 </r>
       <r>     8.2874     5.2246    37.2140 </r>
       <r>     8.3502     6.3418    37.6124 </r>
       <r>     8.4130     5.9300    37.9849 </r>
       <r>     8.4758     4.2796    38.2537 </r>
       <r>     8.5386     4.2400    38.5201 </r>
       <r>     8.6015     7.0458    38.9626 </r>
       <r>     8.6643     7.7502    39.4495 </r>
       <r>     8.7271     4.6941    39.7443 </r>
       <r>     8.7899     3.9853    39.9947 </r>
       <r>     8.8527     5.3308    40.3295 </r>
       <r>     8.9155     3.0766    40.5228 </r>
       <r>     8.9783     2.5585    40.6835 </r>
       <r>     9.0412     4.0782    40.9397 </r>
       <r>     9.1040     5.1910    41.2658 </r>
       <r>     9.1668     7.8168    41.7568 </r>
       <r>     9.2296     9.6626    42.3637 </r>
       <r>     9.2924     7.7280    42.8492 </r>
       <r>     9.3552     4.6189    43.1393 </r>
       <r>     9.4181     4.6112    43.4290 </r>
       <r>     9.4809     5.6095    43.7813 </r>
       <r>     9.5437     5.7073    44.1398 </r>
       <r>     9.6065     5.8050    44.5045 </r>
       <r>     9.6693     5.2508    44.8343 </r>
       <r>     9.7321     5.8318    45.2007 </r>
       <r>     9.7949     8.4281    45.7301 </r>
       <r>     9.8578     6.8181    46.1584 </r>
       <r>     9.9206     3.7815    46.3959 </r>
       <r>     9.9834     2.9213    46.5794 </r>
       <r>    10.0462     2.6600    46.7465 </r>
       <r>    10.1090     2.8574    46.9260 </r>
       <r>    10.1718     2.6287    47.0911 </r>
       <r>    10.2347     2.5086    47.2487 </r>
       <r>    10.2975     3.3200    47.4572 </r>
       <r>    10.3603     2.1101    47.5898 </r>
       <r>    10.4231     1.6246    47.6918 </r>
       <r>    10.4859     1.8207    47.8062 </r>
       <r>    10.5487     0.6835    47.8491 </r>
       <r>    10.6116     0.7311    47.8950 </r>
       <r>    10.6744     0.6424    47.9354 </r>
       <r>    10.7372     0.4810    47.9656 </r>
       <r>    10.8000     0.5163    47.9981 </r>
       <r>    10.8628     0.0679    48.0023 </r>
       <r>    10.9256    -0.0407    47.9998 </r>
       <r>    10.9884     0.0014    47.9998 </r>
       <r>    11.0513     0.0022    48.0000 </r>
       <r>    11.1141     0.0002    48.0000 </r>
       <r>    11.1769     0.0000    48.0000 </r>
       <r>    11.2397     0.0000    48.0000 </r>
       <r>    11.3025     0.0000    48.0000 </r>
       <r>    11.3653     0.0000    48.0000 </r>
       <r>    11.4282     0.0000    48.0000 </r>
       <r>    11.4910     0.0000    48.0000 </r>
       <r>    11.5538     0.0000    48.0000 </r>
       <r>    11.6166     0.0000    48.0000 </r>
       <r>    11.6794     0.0000    48.0000 </r>
       <r>    11.7422     0.0000    48.0000 </r>
      </set>
     </set>
    </array>
   </total>
  </dos>
 </calculation>
 <structure name="finalpos" >
  <crystal>
   <varray name="basis" >
    <v>       5.41437351       0.00000000       0.00000000 </v>
    <v>       0.00000000       5.41437351       0.00000000 </v>
    <v>       0.00000000       0.00000000       5.41437351 </v>
   </varray>
   <i name="volume">    158.72474438 </i>
   <varray name="rec_basis" >
    <v>       0.18469358       0.00000000       0.00000000 </v>
    <v>       0.00000000       0.18469358       0.00000000 </v>
    <v>       0.00000000       0.00000000       0.18469358 </v>
   </varray>
  </crystal>
  <varray name="positions" >
   <v>       0.00000000       0.00000000       0.00000000 </v>
   <v>       0.25000000       0.25000000       0.25000000 </v>
   <v>       0.50000000       0.50000000       0.00000000 </v>
   <v>       0.75000000       0.75000000       0.25000000 </v>
   <v>       0.50000000       0.00000000       0.50000000 </v>
   <v>       0.75000000       0.25000000       0.75000000 </v>
   <v>       0.00000000       0.50000000       0.50000000 </v>
   <v>       0.25000000       0.75000000       0.75000000 </v>
  </varray>
 </structure>
</modeling>
