<?xml version="1.0" encoding="ISO-8859-1"?>
<modeling>
 <generator>
  <i name="program" type="string">vasp </i>
  <i name="version" type="string">5.4.1  </i>
  <i name="subversion" type="string">24Jun15 (build Jul  8 2015 13:29:37) complex                          parallel </i>
  <i name="platform" type="string">FX10FRT </i>
  <i name="date" type="string">2016 02 20 </i>
  <i name="time" type="string">07:14:23 </i>
 </generator>
 <incar>
  <i type="string" name="PREC">accurate</i>
  <i type="string" name="ALGO"> Normal</i>
  <i type="int" name="ISPIN">     1</i>
  <i type="int" name="IBRION">    -1</i>
  <i name="EDIFF">      0.00010000</i>
  <i type="int" name="NSW">     0</i>
  <i type="int" name="ISIF">     2</i>
  <i name="ENCUT">    400.00000000</i>
  <i type="int" name="ISMEAR">     2</i>
  <i name="SIGMA">      0.10000000</i>
  <i type="int" name="NWRITE">     1</i>
  <v type="int" name="KPOINT_BSE">    -1     0     0     0</v>
 </incar>
 <kpoints>
  <generation param="Monkhorst-Pack">
   <v type="int" name="divisions">      12       12       12 </v>
   <v name="usershift">      0.00000000       0.00000000       0.00000000 </v>
   <v name="genvec1">      0.08333333       0.00000000       0.00000000 </v>
   <v name="genvec2">      0.00000000       0.08333333       0.00000000 </v>
   <v name="genvec3">      0.00000000       0.00000000       0.08333333 </v>
   <v name="shift">      0.50000000       0.50000000       0.50000000 </v>
  </generation>
  <varray name="kpointlist" >
   <v>       0.04166667       0.04166667       0.04166667 </v>
   <v>       0.12500000       0.04166667       0.04166667 </v>
   <v>       0.20833333       0.04166667       0.04166667 </v>
   <v>       0.29166667       0.04166667       0.04166667 </v>
   <v>       0.37500000       0.04166667       0.04166667 </v>
   <v>       0.45833333       0.04166667       0.04166667 </v>
   <v>       0.12500000       0.12500000       0.04166667 </v>
   <v>       0.20833333       0.12500000       0.04166667 </v>
   <v>       0.29166667       0.12500000       0.04166667 </v>
   <v>       0.37500000       0.12500000       0.04166667 </v>
   <v>       0.45833333       0.12500000       0.04166667 </v>
   <v>       0.20833333       0.20833333       0.04166667 </v>
   <v>       0.29166667       0.20833333       0.04166667 </v>
   <v>       0.37500000       0.20833333       0.04166667 </v>
   <v>       0.45833333       0.20833333       0.04166667 </v>
   <v>       0.29166667       0.29166667       0.04166667 </v>
   <v>       0.37500000       0.29166667       0.04166667 </v>
   <v>       0.45833333       0.29166667       0.04166667 </v>
   <v>       0.37500000       0.37500000       0.04166667 </v>
   <v>       0.45833333       0.37500000       0.04166667 </v>
   <v>       0.45833333       0.45833333       0.04166667 </v>
   <v>       0.12500000       0.12500000       0.12500000 </v>
   <v>       0.20833333       0.12500000       0.12500000 </v>
   <v>       0.29166667       0.12500000       0.12500000 </v>
   <v>       0.37500000       0.12500000       0.12500000 </v>
   <v>       0.45833333       0.12500000       0.12500000 </v>
   <v>       0.20833333       0.20833333       0.12500000 </v>
   <v>       0.29166667       0.20833333       0.12500000 </v>
   <v>       0.37500000       0.20833333       0.12500000 </v>
   <v>       0.45833333       0.20833333       0.12500000 </v>
   <v>       0.29166667       0.29166667       0.12500000 </v>
   <v>       0.37500000       0.29166667       0.12500000 </v>
   <v>       0.45833333       0.29166667       0.12500000 </v>
   <v>       0.37500000       0.37500000       0.12500000 </v>
   <v>       0.45833333       0.37500000       0.12500000 </v>
   <v>       0.45833333       0.45833333       0.12500000 </v>
   <v>       0.20833333       0.20833333       0.20833333 </v>
   <v>       0.29166667       0.20833333       0.20833333 </v>
   <v>       0.37500000       0.20833333       0.20833333 </v>
   <v>       0.45833333       0.20833333       0.20833333 </v>
   <v>       0.29166667       0.29166667       0.20833333 </v>
   <v>       0.37500000       0.29166667       0.20833333 </v>
   <v>       0.45833333       0.29166667       0.20833333 </v>
   <v>       0.37500000       0.37500000       0.20833333 </v>
   <v>       0.45833333       0.37500000       0.20833333 </v>
   <v>       0.45833333       0.45833333       0.20833333 </v>
   <v>       0.29166667       0.29166667       0.29166667 </v>
   <v>       0.37500000       0.29166667       0.29166667 </v>
   <v>       0.45833333       0.29166667       0.29166667 </v>
   <v>       0.37500000       0.37500000       0.29166667 </v>
   <v>       0.45833333       0.37500000       0.29166667 </v>
   <v>       0.45833333       0.45833333       0.29166667 </v>
   <v>       0.37500000       0.37500000       0.37500000 </v>
   <v>       0.45833333       0.37500000       0.37500000 </v>
   <v>       0.45833333       0.45833333       0.37500000 </v>
   <v>       0.45833333       0.45833333       0.45833333 </v>
  </varray>
  <varray name="weights" >
   <v>       0.00462963 </v>
   <v>       0.01388889 </v>
   <v>       0.01388889 </v>
   <v>       0.01388889 </v>
   <v>       0.01388889 </v>
   <v>       0.01388889 </v>
   <v>       0.01388889 </v>
   <v>       0.02777778 </v>
   <v>       0.02777778 </v>
   <v>       0.02777778 </v>
   <v>       0.02777778 </v>
   <v>       0.01388889 </v>
   <v>       0.02777778 </v>
   <v>       0.02777778 </v>
   <v>       0.02777778 </v>
   <v>       0.01388889 </v>
   <v>       0.02777778 </v>
   <v>       0.02777778 </v>
   <v>       0.01388889 </v>
   <v>       0.02777778 </v>
   <v>       0.01388889 </v>
   <v>       0.00462963 </v>
   <v>       0.01388889 </v>
   <v>       0.01388889 </v>
   <v>       0.01388889 </v>
   <v>       0.01388889 </v>
   <v>       0.01388889 </v>
   <v>       0.02777778 </v>
   <v>       0.02777778 </v>
   <v>       0.02777778 </v>
   <v>       0.01388889 </v>
   <v>       0.02777778 </v>
   <v>       0.02777778 </v>
   <v>       0.01388889 </v>
   <v>       0.02777778 </v>
   <v>       0.01388889 </v>
   <v>       0.00462963 </v>
   <v>       0.01388889 </v>
   <v>       0.01388889 </v>
   <v>       0.01388889 </v>
   <v>       0.01388889 </v>
   <v>       0.02777778 </v>
   <v>       0.02777778 </v>
   <v>       0.01388889 </v>
   <v>       0.02777778 </v>
   <v>       0.01388889 </v>
   <v>       0.00462963 </v>
   <v>       0.01388889 </v>
   <v>       0.01388889 </v>
   <v>       0.01388889 </v>
   <v>       0.02777778 </v>
   <v>       0.01388889 </v>
   <v>       0.00462963 </v>
   <v>       0.01388889 </v>
   <v>       0.01388889 </v>
   <v>       0.00462963 </v>
  </varray>
 </kpoints>
 <parameters>
  <separator name="general" >
   <i type="string" name="SYSTEM">unknown system</i>
   <i type="logical" name="LCOMPAT"> F  </i>
  </separator>
  <separator name="electronic" >
   <i type="string" name="PREC">accura</i>
   <i name="ENMAX">    400.00000000</i>
   <i name="ENAUG">    322.06900000</i>
   <i name="EDIFF">      0.00010000</i>
   <i type="int" name="IALGO">    38</i>
   <i type="int" name="IWAVPR">    10</i>
   <i type="int" name="NBANDS">    16</i>
   <i name="NELECT">     16.00000000</i>
   <i type="int" name="TURBO">     0</i>
   <i type="int" name="IRESTART">     0</i>
   <i type="int" name="NREBOOT">     0</i>
   <i type="int" name="NMIN">     0</i>
   <i name="EREF">      0.00000000</i>
   <separator name="electronic smearing" >
    <i type="int" name="ISMEAR">     2</i>
    <i name="SIGMA">      0.10000000</i>
    <i name="KSPACING">      0.50000000</i>
    <i type="logical" name="KGAMMA"> T  </i>
   </separator>
   <separator name="electronic projectors" >
    <i type="logical" name="LREAL"> F  </i>
    <v name="ROPT">      0.00000000</v>
    <i type="int" name="LMAXPAW">  -100</i>
    <i type="int" name="LMAXMIX">     2</i>
    <i type="logical" name="NLSPLINE"> F  </i>
   </separator>
   <separator name="electronic startup" >
    <i type="int" name="ISTART">     0</i>
    <i type="int" name="ICHARG">     2</i>
    <i type="int" name="INIWAV">     1</i>
   </separator>
   <separator name="electronic spin" >
    <i type="int" name="ISPIN">     1</i>
    <i type="logical" name="LNONCOLLINEAR"> F  </i>
    <v name="MAGMOM">      1.00000000      1.00000000      1.00000000      1.00000000</v>
    <i name="NUPDOWN">     -1.00000000</i>
    <i type="logical" name="LSORBIT"> F  </i>
    <v name="SAXIS">      0.00000000      0.00000000      1.00000000</v>
    <i type="logical" name="LSPIRAL"> F  </i>
    <v name="QSPIRAL">      0.00000000      0.00000000      0.00000000</v>
    <i type="logical" name="LZEROZ"> F  </i>
   </separator>
   <separator name="electronic exchange-correlation" >
    <i type="logical" name="LASPH"> F  </i>
    <i type="logical" name="LMETAGGA"> F  </i>
   </separator>
   <separator name="electronic convergence" >
    <i type="int" name="NELM">    60</i>
    <i type="int" name="NELMDL">    -5</i>
    <i type="int" name="NELMIN">     2</i>
    <i name="ENINI">    400.00000000</i>
    <separator name="electronic convergence detail" >
     <i type="logical" name="LDIAG"> T  </i>
     <i type="logical" name="LSUBROT"> F  </i>
     <i name="WEIMIN">      0.00000000</i>
     <i name="EBREAK">      0.00000156</i>
     <i name="DEPER">      0.30000000</i>
     <i type="int" name="NRMM">     4</i>
     <i name="TIME">      0.40000000</i>
    </separator>
   </separator>
   <separator name="electronic mixer" >
    <i name="AMIX">      0.40000000</i>
    <i name="BMIX">      1.00000000</i>
    <i name="AMIN">      0.10000000</i>
    <i name="AMIX_MAG">      1.60000000</i>
    <i name="BMIX_MAG">      1.00000000</i>
    <separator name="electronic mixer details" >
     <i type="int" name="IMIX">     4</i>
     <i type="logical" name="MIXFIRST"> F  </i>
     <i type="int" name="MAXMIX">   -45</i>
     <i name="WC">    100.00000000</i>
     <i type="int" name="INIMIX">     1</i>
     <i type="int" name="MIXPRE">     1</i>
     <i type="int" name="MREMOVE">     5</i>
    </separator>
   </separator>
   <separator name="electronic dipolcorrection" >
    <i type="logical" name="LDIPOL"> F  </i>
    <i type="logical" name="LMONO"> F  </i>
    <i type="int" name="IDIPOL">     0</i>
    <i name="EPSILON">      1.00000000</i>
    <v name="DIPOL">   -100.00000000   -100.00000000   -100.00000000</v>
    <i name="EFIELD">      0.00000000</i>
   </separator>
  </separator>
  <separator name="grids" >
   <i type="int" name="NGX">    28</i>
   <i type="int" name="NGY">    28</i>
   <i type="int" name="NGZ">    28</i>
   <i type="int" name="NGXF">    56</i>
   <i type="int" name="NGYF">    56</i>
   <i type="int" name="NGZF">    56</i>
   <i type="logical" name="ADDGRID"> F  </i>
  </separator>
  <separator name="ionic" >
   <i type="int" name="NSW">     0</i>
   <i type="int" name="IBRION">    -1</i>
   <i type="int" name="ISIF">     2</i>
   <i name="PSTRESS">      0.00000000</i>
   <i name="EDIFFG">      0.00100000</i>
   <i type="int" name="NFREE">     0</i>
   <i name="POTIM">      0.50000000</i>
   <i name="SMASS">     -3.00000000</i>
   <i name="SCALEE">      1.00000000</i>
  </separator>
  <separator name="ionic md" >
   <i name="TEBEG">      0.00010000</i>
   <i name="TEEND">      0.00010000</i>
   <i type="int" name="NBLOCK">     1</i>
   <i type="int" name="KBLOCK">     1</i>
   <i type="int" name="NPACO">   256</i>
   <i name="APACO">     16.00000000</i>
  </separator>
  <separator name="symmetry" >
   <i type="int" name="ISYM">     2</i>
   <i name="SYMPREC">      0.00001000</i>
  </separator>
  <separator name="dos" >
   <i type="logical" name="LORBIT"> F  </i>
   <v name="RWIGS">     -1.00000000</v>
   <i type="int" name="NEDOS">   301</i>
   <i name="EMIN">     10.00000000</i>
   <i name="EMAX">    -10.00000000</i>
   <i name="EFERMI">      0.00000000</i>
  </separator>
  <separator name="writing" >
   <i type="int" name="NWRITE">     1</i>
   <i type="logical" name="LWAVE"> T  </i>
   <i type="logical" name="LCHARG"> T  </i>
   <i type="logical" name="LPARD"> F  </i>
   <i type="logical" name="LVTOT"> F  </i>
   <i type="logical" name="LVHAR"> F  </i>
   <i type="logical" name="LELF"> F  </i>
   <i type="logical" name="LOPTICS"> F  </i>
   <v name="STM">      0.00000000      0.00000000      0.00000000      0.00000000      0.00000000      0.00000000      0.00000000</v>
  </separator>
  <separator name="performance" >
   <i type="int" name="NPAR">     8</i>
   <i type="int" name="NSIM">     4</i>
   <i type="int" name="NBLK">    -1</i>
   <i type="logical" name="LPLANE"> T  </i>
   <i type="logical" name="LSCALAPACK"> T  </i>
   <i type="logical" name="LSCAAWARE"> F  </i>
   <i type="logical" name="LSCALU"> F  </i>
   <i type="logical" name="LASYNC"> F  </i>
   <i type="logical" name="LORBITALREAL"> F  </i>
  </separator>
  <separator name="miscellaneous" >
   <i type="int" name="IDIOT">     3</i>
   <i type="logical" name="LMUSIC"> F  </i>
   <v name="POMASS">     28.08500000</v>
   <v name="DARWINR">      0.00000000</v>
   <v name="DARWINV">      1.00000000</v>
   <i type="logical" name="LCORR"> T  </i>
  </separator>
  <i type="logical" name="GGA_COMPAT"> T  </i>
  <i type="logical" name="LBERRY"> F  </i>
  <i type="int" name="ICORELEVEL">     0</i>
  <i type="logical" name="LDAU"> F  </i>
  <i type="int" name="I_CONSTRAINED_M">     0</i>
  <separator name="electronic exchange-correlation" >
   <i type="string" name="GGA">--</i>
   <i type="int" name="VOSKOWN">     0</i>
   <i type="logical" name="LHFCALC"> F  </i>
   <i type="string" name="PRECFOCK"></i>
   <i type="logical" name="LSYMGRAD"> F  </i>
   <i type="logical" name="LHFONE"> F  </i>
   <i type="logical" name="LRHFCALC"> F  </i>
   <i type="logical" name="LTHOMAS"> F  </i>
   <i type="logical" name="LMODELHF"> F  </i>
   <i name="ENCUT4O">     -1.00000000</i>
   <i type="int" name="EXXOEP">     0</i>
   <i type="int" name="FOURORBIT">     0</i>
   <i name="AEXX">      0.00000000</i>
   <i name="HFALPHA">      0.00000000</i>
   <i name="MCALPHA">      0.00000000</i>
   <i name="ALDAX">      1.00000000</i>
   <i name="AGGAX">      1.00000000</i>
   <i name="ALDAC">      1.00000000</i>
   <i name="AGGAC">      1.00000000</i>
   <i type="int" name="NKREDX">     1</i>
   <i type="int" name="NKREDY">     1</i>
   <i type="int" name="NKREDZ">     1</i>
   <i type="logical" name="SHIFTRED"> F  </i>
   <i type="logical" name="ODDONLY"> F  </i>
   <i type="logical" name="EVENONLY"> F  </i>
   <i type="int" name="LMAXFOCK">     0</i>
   <i type="int" name="NMAXFOCKAE">     0</i>
   <i type="logical" name="LFOCKAEDFT"> F  </i>
   <i name="HFSCREEN">      0.00000000</i>
   <i name="HFSCREENC">      0.00000000</i>
   <i type="int" name="NBANDSGWLOW">     0</i>
  </separator>
  <separator name="vdW DFT" >
   <i type="logical" name="LUSE_VDW"> F  </i>
   <i name="Zab_VDW">     -0.84910000</i>
   <i name="PARAM1">      0.12340000</i>
   <i name="PARAM2">      1.00000000</i>
   <i name="PARAM3">      0.00000000</i>
  </separator>
  <separator name="model GW" >
   <i type="int" name="MODEL_GW">     0</i>
   <i name="MODEL_EPS0">      9.24993570</i>
   <i name="MODEL_ALPHA">      1.00000000</i>
  </separator>
  <separator name="linear response parameters" >
   <i type="logical" name="LEPSILON"> F  </i>
   <i type="logical" name="LRPA"> F  </i>
   <i type="logical" name="LNABLA"> F  </i>
   <i type="logical" name="LVEL"> F  </i>
   <i type="int" name="KINTER">     0</i>
   <i name="CSHIFT">      0.10000000</i>
   <i name="OMEGAMAX">     -1.00000000</i>
   <i name="DEG_THRESHOLD">      0.00200000</i>
  </separator>
  <separator name="orbital magnetization" >
   <i type="logical" name="NUCIND"> F  </i>
   <v name="MAGPOS">      0.00000000      0.00000000      0.00000000</v>
   <i type="logical" name="LNICSALL"> T  </i>
   <i type="logical" name="ORBITALMAG"> F  </i>
   <i type="logical" name="LMAGBLOCH"> F  </i>
   <i type="logical" name="LCHIMAG"> F  </i>
   <i type="logical" name="LGAUGE"> T  </i>
   <i type="int" name="MAGATOM">     0</i>
   <v name="MAGDIPOL">      0.00000000      0.00000000      0.00000000</v>
   <v name="AVECCONST">      0.00000000      0.00000000      0.00000000</v>
  </separator>
  <separator name="response functions" >
   <i type="logical" name="LADDER"> F  </i>
   <i type="logical" name="LFXC"> F  </i>
   <i type="logical" name="LHARTREE"> T  </i>
   <i type="int" name="IBSE">     0</i>
   <v type="int" name="KPOINT">    -1     0     0     0</v>
   <i type="logical" name="LTCTE"> F  </i>
   <i type="logical" name="LTETE"> F  </i>
   <i type="logical" name="LTRIPLET"> F  </i>
   <i type="logical" name="LFXCEPS"> F  </i>
   <i type="logical" name="LFXHEG"> F  </i>
   <i type="int" name="NATURALO">     0</i>
   <i type="logical" name="L2ORDER"> F  </i>
   <i type="logical" name="LUSEW"> F  </i>
   <i name="ENCUTGW">     -2.00000000</i>
   <i name="ENCUTGWSOFT">     -2.00000000</i>
   <i name="ENCUTLF">     -1.00000000</i>
   <i type="int" name="LMAXMP2">    -1</i>
   <i name="SCISSOR">      0.00000000</i>
   <i type="int" name="NOMEGA">     0</i>
   <i type="int" name="NOMEGAR">     0</i>
   <i type="int" name="NBANDSGW">    -1</i>
   <i type="int" name="NBANDSO">    -1</i>
   <i type="int" name="NBANDSV">    -1</i>
   <i type="int" name="NELM">     1</i>
   <i type="int" name="NELMHF">     1</i>
   <i type="int" name="DIM">     3</i>
   <i type="int" name="ANTIRES">     0</i>
   <i name="OMEGAMAX">    -30.00000000</i>
   <i name="OMEGAMIN">    -30.00000000</i>
   <i name="OMEGATL">   -200.00000000</i>
   <i type="int" name="OMEGAGRID">     0</i>
   <i name="CSHIFT">     -0.10000000</i>
   <i type="logical" name="SELFENERGY"> F  </i>
   <i type="logical" name="LSPECTRAL"> F  </i>
   <i type="logical" name="LSPECTRALGW"> F  </i>
   <i type="logical" name="LSINGLES"> F  </i>
   <i type="logical" name="LFERMIGW"> F  </i>
   <i type="logical" name="ODDONLYGW"> F  </i>
   <i type="logical" name="EVENONLYGW"> F  </i>
   <i type="int" name="NKREDLFX">     1</i>
   <i type="int" name="NKREDLFY">     1</i>
   <i type="int" name="NKREDLFZ">     1</i>
   <i type="int" name="MAXMEM">  1800</i>
   <i type="int" name="TELESCOPE">     0</i>
   <i type="int" name="TAUPAR">     1</i>
   <i type="int" name="OMEGAPAR">    -1</i>
   <i name="LAMBDA">      1.00000000</i>
  </separator>
  <separator name="External order field" >
   <i name="OFIELD_KAPPA">      0.00000000</i>
   <v name="OFIELD_K">      0.00000000      0.00000000      0.00000000</v>
   <i name="OFIELD_Q6_NEAR">      0.00000000</i>
   <i name="OFIELD_Q6_FAR">      0.00000000</i>
   <i name="OFIELD_A">      0.00000000</i>
  </separator>
 </parameters>
 <atominfo>
  <atoms>       4 </atoms>
  <types>       1 </types>
  <array name="atoms" >
   <dimension dim="1">ion</dimension>
   <field type="string">element</field>
   <field type="int">atomtype</field>
   <set>
    <rc><c>Si</c><c>   1</c></rc>
    <rc><c>Si</c><c>   1</c></rc>
    <rc><c>Si</c><c>   1</c></rc>
    <rc><c>Si</c><c>   1</c></rc>
   </set>
  </array>
  <array name="atomtypes" >
   <dimension dim="1">type</dimension>
   <field type="int">atomspertype</field>
   <field type="string">element</field>
   <field>mass</field>
   <field>valence</field>
   <field type="string">pseudopotential</field>
   <set>
    <rc><c>   4</c><c>Si</c><c>     28.08500000</c><c>      4.00000000</c><c>  PAW_PBE Si 05Jan2001                  </c></rc>
   </set>
  </array>
 </atominfo>
 <structure name="initialpos" >
  <crystal>
   <varray name="basis" >
    <v>       3.95077671       0.00000000       0.00000000 </v>
    <v>       0.00000000       3.95077671       0.00000000 </v>
    <v>       0.00000000       0.00000000       3.95077671 </v>
   </varray>
   <i name="volume">     61.66623803 </i>
   <varray name="rec_basis" >
    <v>       0.25311479       0.00000000       0.00000000 </v>
    <v>       0.00000000       0.25311479       0.00000000 </v>
    <v>       0.00000000       0.00000000       0.25311479 </v>
   </varray>
  </crystal>
  <varray name="positions" >
   <v>       0.00000000       0.00000000       0.00000000 </v>
   <v>       0.50000000       0.50000000       0.00000000 </v>
   <v>       0.50000000       0.00000000       0.50000000 </v>
   <v>       0.00000000       0.50000000       0.50000000 </v>
  </varray>
 </structure>
 <calculation>
  <scstep>
   <time name="dav">    0.65    0.68</time>
   <time name="total">    0.69    0.75</time>
   <energy>
    <i name="alphaZ">      8.73427843 </i>
    <i name="ewald">   -534.74883423 </i>
    <i name="hartreedc">     -2.98954786 </i>
    <i name="XCdc">    -35.88400225 </i>
    <i name="pawpsdc">    352.49519846 </i>
    <i name="pawaedc">   -282.12207116 </i>
    <i name="eentropy">     -0.00051040 </i>
    <i name="bandstr">     94.99019154 </i>
    <i name="atom">    412.26298491 </i>
    <i name="e_fr_energy">     12.73768745 </i>
    <i name="e_wo_entrp">     12.73819784 </i>
    <i name="e_0_energy">     12.73781505 </i>
   </energy>
  </scstep>
  <scstep>
   <time name="dav">    0.77    0.77</time>
   <time name="total">    0.78    0.80</time>
   <energy>
    <i name="e_fr_energy">    -18.55734075 </i>
    <i name="e_wo_entrp">    -18.55649396 </i>
    <i name="e_0_energy">    -18.55712905 </i>
   </energy>
  </scstep>
  <scstep>
   <time name="dav">    0.76    0.76</time>
   <time name="total">    0.77    0.78</time>
   <energy>
    <i name="e_fr_energy">    -19.55275777 </i>
    <i name="e_wo_entrp">    -19.55263283 </i>
    <i name="e_0_energy">    -19.55272654 </i>
   </energy>
  </scstep>
  <scstep>
   <time name="dav">    0.73    0.74</time>
   <time name="total">    0.74    0.76</time>
   <energy>
    <i name="e_fr_energy">    -19.55814922 </i>
    <i name="e_wo_entrp">    -19.55804052 </i>
    <i name="e_0_energy">    -19.55812205 </i>
   </energy>
  </scstep>
  <scstep>
   <time name="dav">    0.76    0.76</time>
   <time name="total">    0.80    0.83</time>
   <energy>
    <i name="e_fr_energy">    -19.55818482 </i>
    <i name="e_wo_entrp">    -19.55807621 </i>
    <i name="e_0_energy">    -19.55815767 </i>
   </energy>
  </scstep>
  <scstep>
   <time name="dav">    0.69    0.69</time>
   <time name="total">    0.73    0.75</time>
   <energy>
    <i name="e_fr_energy">    -19.51146085 </i>
    <i name="e_wo_entrp">    -19.51136183 </i>
    <i name="e_0_energy">    -19.51143610 </i>
   </energy>
  </scstep>
  <scstep>
   <time name="dav">    0.65    0.66</time>
   <time name="total">    0.72    0.72</time>
   <energy>
    <i name="e_fr_energy">    -19.48535804 </i>
    <i name="e_wo_entrp">    -19.48531645 </i>
    <i name="e_0_energy">    -19.48534764 </i>
   </energy>
  </scstep>
  <scstep>
   <time name="dav">    0.77    0.76</time>
   <time name="total">    0.81    0.83</time>
   <energy>
    <i name="e_fr_energy">    -19.48520492 </i>
    <i name="e_wo_entrp">    -19.48516629 </i>
    <i name="e_0_energy">    -19.48519526 </i>
   </energy>
  </scstep>
  <scstep>
   <time name="dav">    0.50    0.49</time>
   <time name="total">    0.53    0.52</time>
   <energy>
    <i name="alphaZ">      8.73427843 </i>
    <i name="ewald">   -534.74883423 </i>
    <i name="hartreedc">     -2.21892712 </i>
    <i name="XCdc">    -35.73714278 </i>
    <i name="pawpsdc">   1033.95554009 </i>
    <i name="pawaedc">   -963.57399215 </i>
    <i name="eentropy">     -0.00003806 </i>
    <i name="bandstr">     61.84092428 </i>
    <i name="atom">    412.26298491 </i>
    <i name="e_fr_energy">    -19.48520662 </i>
    <i name="e_wo_entrp">    -19.48516857 </i>
    <i name="e_0_energy">    -19.48519711 </i>
   </energy>
  </scstep>
  <structure>
   <crystal>
    <varray name="basis" >
     <v>       3.95077671       0.00000000       0.00000000 </v>
     <v>       0.00000000       3.95077671       0.00000000 </v>
     <v>       0.00000000       0.00000000       3.95077671 </v>
    </varray>
    <i name="volume">     61.66623803 </i>
    <varray name="rec_basis" >
     <v>       0.25311479       0.00000000       0.00000000 </v>
     <v>       0.00000000       0.25311479       0.00000000 </v>
     <v>       0.00000000       0.00000000       0.25311479 </v>
    </varray>
   </crystal>
   <varray name="positions" >
    <v>       0.00000000       0.00000000       0.00000000 </v>
    <v>       0.50000000       0.50000000       0.00000000 </v>
    <v>       0.50000000       0.00000000       0.50000000 </v>
    <v>       0.00000000       0.50000000       0.50000000 </v>
   </varray>
  </structure>
  <varray name="forces" >
   <v>       0.00000000       0.00000000       0.00000000 </v>
   <v>       0.00000000       0.00000000       0.00000000 </v>
   <v>       0.00000000       0.00000000       0.00000000 </v>
   <v>       0.00000000       0.00000000       0.00000000 </v>
  </varray>
  <varray name="stress" >
   <v>     -45.52174512       0.00000000       0.00000000 </v>
   <v>       0.00000000     -45.52174512       0.00000000 </v>
   <v>       0.00000000       0.00000000     -45.52174512 </v>
  </varray>
  <energy>
   <i name="e_fr_energy">    -19.48520662 </i>
   <i name="e_wo_entrp">    -19.48519711 </i>
   <i name="e_0_energy">     -0.00003806 </i>
  </energy>
  <time name="totalsc">    7.46    7.69</time>
  <eigenvalues>
   <array>
    <dimension dim="1">band</dimension>
    <dimension dim="2">kpoint</dimension>
    <dimension dim="3">spin</dimension>
    <field>eigene</field>
    <field>occ</field>
    <set>
     <set comment="spin 1">
      <set comment="kpoint 1">
       <r>   -4.4782    1.0000 </r>
       <r>    3.8295    1.0000 </r>
       <r>    3.8295    1.0000 </r>
       <r>    3.8295    1.0000 </r>
       <r>    5.4046    1.0000 </r>
       <r>    5.4046    1.0000 </r>
       <r>    5.4046    1.0000 </r>
       <r>   11.6847    0.0000 </r>
       <r>   11.6847    0.0000 </r>
       <r>   11.6847    0.0000 </r>
       <r>   12.4046    0.0000 </r>
       <r>   12.4046    0.0000 </r>
       <r>   12.4046    0.0000 </r>
       <r>   14.3201    0.0000 </r>
       <r>   14.3201    0.0000 </r>
       <r>   14.3201    0.0000 </r>
      </set>
      <set comment="kpoint 2">
       <r>   -4.3491    1.0000 </r>
       <r>    2.4946    1.0000 </r>
       <r>    3.9507    1.0000 </r>
       <r>    3.9507    1.0000 </r>
       <r>    5.5204    1.0000 </r>
       <r>    5.5204    1.0000 </r>
       <r>    6.9540    1.0000 </r>
       <r>   10.5263    0.0000 </r>
       <r>   10.5263    0.0000 </r>
       <r>   11.8031    0.0000 </r>
       <r>   11.8823    0.0000 </r>
       <r>   11.8823    0.0000 </r>
       <r>   12.5180    0.0000 </r>
       <r>   14.4462    0.0000 </r>
       <r>   15.3828    0.0000 </r>
       <r>   15.3828    0.0000 </r>
      </set>
      <set comment="kpoint 3">
       <r>   -4.0913    1.0000 </r>
       <r>    1.2491    1.0000 </r>
       <r>    4.1923    1.0000 </r>
       <r>    4.1923    1.0000 </r>
       <r>    5.7479    1.0000 </r>
       <r>    5.7479    1.0000 </r>
       <r>    8.6225    1.0000 </r>
       <r>    9.3787    0.3357 </r>
       <r>    9.3787    0.3357 </r>
       <r>   10.9234    0.0000 </r>
       <r>   10.9234    0.0000 </r>
       <r>   12.0406    0.0000 </r>
       <r>   12.7446    0.0000 </r>
       <r>   14.6977    0.0000 </r>
       <r>   16.5220    0.0000 </r>
       <r>   16.7529    0.0000 </r>
      </set>
      <set comment="kpoint 4">
       <r>   -3.7051    1.0000 </r>
       <r>    0.1177    1.0000 </r>
       <r>    4.5515    1.0000 </r>
       <r>    4.5515    1.0000 </r>
       <r>    6.0732    1.0000 </r>
       <r>    6.0732    1.0000 </r>
       <r>    8.3317    1.0000 </r>
       <r>    8.3317    1.0000 </r>
       <r>    9.9581    0.0000 </r>
       <r>    9.9581    0.0000 </r>
       <r>   10.3688    0.0000 </r>
       <r>   12.4017    0.0000 </r>
       <r>   13.0841    0.0000 </r>
       <r>   15.0748    0.0000 </r>
       <r>   15.7644    0.0000 </r>
       <r>   16.4392    0.0000 </r>
      </set>
      <set comment="kpoint 5">
       <r>   -3.1912    1.0000 </r>
       <r>   -0.8944    1.0000 </r>
       <r>    5.0205    1.0000 </r>
       <r>    5.0205    1.0000 </r>
       <r>    6.4328    1.0000 </r>
       <r>    6.4328    1.0000 </r>
       <r>    7.4530    1.0000 </r>
       <r>    7.4530    1.0000 </r>
       <r>    9.0984    0.9987 </r>
       <r>    9.0984    0.9987 </r>
       <r>   12.1235    0.0000 </r>
       <r>   12.9229    0.0000 </r>
       <r>   13.5360    0.0000 </r>
       <r>   14.8639    0.0000 </r>
       <r>   15.5539    0.0000 </r>
       <r>   15.5777    0.0000 </r>
      </set>
      <set comment="kpoint 6">
       <r>   -2.5506    1.0000 </r>
       <r>   -1.7845    1.0000 </r>
       <r>    5.5526    1.0000 </r>
       <r>    5.5526    1.0000 </r>
       <r>    6.3707    1.0000 </r>
       <r>    6.3707    1.0000 </r>
       <r>    7.1485    1.0000 </r>
       <r>    7.1485    1.0000 </r>
       <r>    8.4725    1.0000 </r>
       <r>    8.4725    1.0000 </r>
       <r>   13.3172    0.0000 </r>
       <r>   14.0574    0.0000 </r>
       <r>   14.0993    0.0000 </r>
       <r>   14.1115    0.0000 </r>
       <r>   14.7727    0.0000 </r>
       <r>   15.7290    0.0000 </r>
      </set>
      <set comment="kpoint 7">
       <r>   -4.2202    1.0000 </r>
       <r>    2.6174    1.0000 </r>
       <r>    2.6174    1.0000 </r>
       <r>    4.0710    1.0000 </r>
       <r>    5.6316    1.0000 </r>
       <r>    7.0638    1.0000 </r>
       <r>    7.0638    1.0000 </r>
       <r>    9.3143    0.9301 </r>
       <r>   10.6500    0.0000 </r>
       <r>   10.6500    0.0000 </r>
       <r>   12.0012    0.0000 </r>
       <r>   12.0012    0.0000 </r>
       <r>   12.6289    0.0000 </r>
       <r>   15.0393    0.0000 </r>
       <r>   15.5060    0.0000 </r>
       <r>   15.5060    0.0000 </r>
      </set>
      <set comment="kpoint 8">
       <r>   -3.9625    1.0000 </r>
       <r>    1.3733    1.0000 </r>
       <r>    2.8623    1.0000 </r>
       <r>    4.3098    1.0000 </r>
       <r>    5.8421    1.0000 </r>
       <r>    7.2732    1.0000 </r>
       <r>    8.1739    1.0000 </r>
       <r>    8.7160    1.0000 </r>
       <r>    9.5117   -0.0117 </r>
       <r>   10.9028    0.0000 </r>
       <r>   11.0524    0.0000 </r>
       <r>   12.2129    0.0000 </r>
       <r>   12.2413    0.0000 </r>
       <r>   15.6703    0.0000 </r>
       <r>   15.7525    0.0000 </r>
       <r>   15.9704    0.0000 </r>
      </set>
      <set comment="kpoint 9">
       <r>   -3.5766    1.0000 </r>
       <r>    0.2430    1.0000 </r>
       <r>    3.2276    1.0000 </r>
       <r>    4.6599    1.0000 </r>
       <r>    6.0797    1.0000 </r>
       <r>    7.2300    1.0000 </r>
       <r>    7.5250    1.0000 </r>
       <r>    8.5117    1.0000 </r>
       <r>   10.1098    0.0000 </r>
       <r>   10.3906    0.0000 </r>
       <r>   11.3261    0.0000 </r>
       <r>   11.3516    0.0000 </r>
       <r>   12.6119    0.0000 </r>
       <r>   14.6659    0.0000 </r>
       <r>   15.8802    0.0000 </r>
       <r>   16.1228    0.0000 </r>
      </set>
      <set comment="kpoint 10">
       <r>   -3.0631    1.0000 </r>
       <r>   -0.7681    1.0000 </r>
       <r>    3.7097    1.0000 </r>
       <r>    5.0714    1.0000 </r>
       <r>    5.8978    1.0000 </r>
       <r>    6.9838    1.0000 </r>
       <r>    7.3005    1.0000 </r>
       <r>    8.1055    1.0000 </r>
       <r>    9.3485    0.6493 </r>
       <r>   10.4907    0.0000 </r>
       <r>   11.5533    0.0000 </r>
       <r>   12.3547    0.0000 </r>
       <r>   13.1840    0.0000 </r>
       <r>   13.7510    0.0000 </r>
       <r>   14.9905    0.0000 </r>
       <r>   16.6182    0.0000 </r>
      </set>
      <set comment="kpoint 11">
       <r>   -2.4230    1.0000 </r>
       <r>   -1.6575    1.0000 </r>
       <r>    4.2979    1.0000 </r>
       <r>    4.9390    1.0000 </r>
       <r>    5.9039    1.0000 </r>
       <r>    6.5525    1.0000 </r>
       <r>    7.4164    1.0000 </r>
       <r>    7.9404    1.0000 </r>
       <r>    9.2109    1.0095 </r>
       <r>    9.7369    0.0000 </r>
       <r>   12.2178    0.0000 </r>
       <r>   12.9351    0.0000 </r>
       <r>   13.4327    0.0000 </r>
       <r>   14.1865    0.0000 </r>
       <r>   14.4478    0.0000 </r>
       <r>   16.1134    0.0000 </r>
      </set>
      <set comment="kpoint 12">
       <r>   -3.7052    1.0000 </r>
       <r>    1.6212    1.0000 </r>
       <r>    1.6212    1.0000 </r>
       <r>    4.5385    1.0000 </r>
       <r>    5.9590    1.0000 </r>
       <r>    7.1269    1.0000 </r>
       <r>    8.8496    1.0000 </r>
       <r>    8.8496    1.0000 </r>
       <r>    9.8166    0.0000 </r>
       <r>    9.8166    0.0000 </r>
       <r>   11.3227    0.0000 </r>
       <r>   11.3227    0.0000 </r>
       <r>   13.0761    0.0000 </r>
       <r>   14.5817    0.0000 </r>
       <r>   15.6128    0.0000 </r>
       <r>   15.8776    0.0000 </r>
      </set>
      <set comment="kpoint 13">
       <r>   -3.3199    1.0000 </r>
       <r>    0.4933    1.0000 </r>
       <r>    1.9918    1.0000 </r>
       <r>    4.8265    1.0000 </r>
       <r>    5.6550    1.0000 </r>
       <r>    6.7822    1.0000 </r>
       <r>    8.5017    1.0000 </r>
       <r>    9.3050    0.9783 </r>
       <r>    9.9273    0.0000 </r>
       <r>   10.4902    0.0000 </r>
       <r>   10.7286    0.0000 </r>
       <r>   11.8155    0.0000 </r>
       <r>   12.7832    0.0000 </r>
       <r>   13.5620    0.0000 </r>
       <r>   14.9157    0.0000 </r>
       <r>   16.6148    0.0000 </r>
      </set>
      <set comment="kpoint 14">
       <r>   -2.8072    1.0000 </r>
       <r>   -0.5160    1.0000 </r>
       <r>    2.4830    1.0000 </r>
       <r>    4.5666    1.0000 </r>
       <r>    5.5530    1.0000 </r>
       <r>    7.1314    1.0000 </r>
       <r>    7.6260    1.0000 </r>
       <r>    9.0111    1.0000 </r>
       <r>   10.2583    0.0000 </r>
       <r>   10.4854    0.0000 </r>
       <r>   11.7967    0.0000 </r>
       <r>   12.0459    0.0000 </r>
       <r>   12.6355    0.0000 </r>
       <r>   12.9779    0.0000 </r>
       <r>   14.0242    0.0000 </r>
       <r>   18.1187    0.0000 </r>
      </set>
      <set comment="kpoint 15">
       <r>   -2.1680    1.0000 </r>
       <r>   -1.4038    1.0000 </r>
       <r>    3.0906    1.0000 </r>
       <r>    3.8034    1.0000 </r>
       <r>    6.0954    1.0000 </r>
       <r>    6.8029    1.0000 </r>
       <r>    7.6833    1.0000 </r>
       <r>    8.3437    1.0000 </r>
       <r>   10.6731    0.0000 </r>
       <r>   11.0972    0.0000 </r>
       <r>   11.3070    0.0000 </r>
       <r>   11.8126    0.0000 </r>
       <r>   12.4983    0.0000 </r>
       <r>   13.2196    0.0000 </r>
       <r>   14.7169    0.0000 </r>
       <r>   16.5095    0.0000 </r>
      </set>
      <set comment="kpoint 16">
       <r>   -2.9354    1.0000 </r>
       <r>    0.8678    1.0000 </r>
       <r>    0.8678    1.0000 </r>
       <r>    4.4420    1.0000 </r>
       <r>    5.4340    1.0000 </r>
       <r>    7.0229    1.0000 </r>
       <r>    8.9450    1.0000 </r>
       <r>    8.9450    1.0000 </r>
       <r>   10.3042    0.0000 </r>
       <r>   10.3042    0.0000 </r>
       <r>   11.5323    0.0000 </r>
       <r>   11.5323    0.0000 </r>
       <r>   12.5303    0.0000 </r>
       <r>   13.7423    0.0000 </r>
       <r>   13.9520    0.0000 </r>
       <r>   16.3744    0.0000 </r>
      </set>
      <set comment="kpoint 17">
       <r>   -2.4239    1.0000 </r>
       <r>   -0.1385    1.0000 </r>
       <r>    1.3651    1.0000 </r>
       <r>    3.5547    1.0000 </r>
       <r>    5.8577    1.0000 </r>
       <r>    7.4718    1.0000 </r>
       <r>    8.0055    1.0000 </r>
       <r>    9.4431   -0.0417 </r>
       <r>    9.5237   -0.0041 </r>
       <r>   10.9188    0.0000 </r>
       <r>   11.5950    0.0000 </r>
       <r>   11.8420    0.0000 </r>
       <r>   13.0575    0.0000 </r>
       <r>   13.2131    0.0000 </r>
       <r>   13.5769    0.0000 </r>
       <r>   17.4617    0.0000 </r>
      </set>
      <set comment="kpoint 18">
       <r>   -1.7863    1.0000 </r>
       <r>   -1.0240    1.0000 </r>
       <r>    1.9829    1.0000 </r>
       <r>    2.7166    1.0000 </r>
       <r>    6.4502    1.0000 </r>
       <r>    7.1695    1.0000 </r>
       <r>    8.0526    1.0000 </r>
       <r>    8.7447    1.0000 </r>
       <r>   10.0484    0.0000 </r>
       <r>   10.7662    0.0000 </r>
       <r>   11.5428    0.0000 </r>
       <r>   12.2525    0.0000 </r>
       <r>   12.3557    0.0000 </r>
       <r>   12.9696    0.0000 </r>
       <r>   15.0435    0.0000 </r>
       <r>   16.8484    0.0000 </r>
      </set>
      <set comment="kpoint 19">
       <r>   -1.9140    1.0000 </r>
       <r>    0.3632    1.0000 </r>
       <r>    0.3632    1.0000 </r>
       <r>    2.5916    1.0000 </r>
       <r>    6.3309    1.0000 </r>
       <r>    7.9440    1.0000 </r>
       <r>    8.4946    1.0000 </r>
       <r>    8.4946    1.0000 </r>
       <r>   10.0402    0.0000 </r>
       <r>   10.0402    0.0000 </r>
       <r>   10.6531    0.0000 </r>
       <r>   12.1596    0.0000 </r>
       <r>   13.6153    0.0000 </r>
       <r>   13.6153    0.0000 </r>
       <r>   14.6201    0.0000 </r>
       <r>   17.3561    0.0000 </r>
      </set>
      <set comment="kpoint 20">
       <r>   -1.2786    1.0000 </r>
       <r>   -0.5189    1.0000 </r>
       <r>    0.9875    1.0000 </r>
       <r>    1.7320    1.0000 </r>
       <r>    6.9327    1.0000 </r>
       <r>    7.6555    1.0000 </r>
       <r>    8.5353    1.0000 </r>
       <r>    9.0992    0.9987 </r>
       <r>    9.2378    1.0330 </r>
       <r>    9.8195    0.0000 </r>
       <r>   10.6456    0.0000 </r>
       <r>   11.3527    0.0000 </r>
       <r>   14.1065    0.0000 </r>
       <r>   14.5822    0.0000 </r>
       <r>   15.4264    0.0000 </r>
       <r>   17.1000    0.0000 </r>
      </set>
      <set comment="kpoint 21">
       <r>   -0.6459    1.0000 </r>
       <r>    0.1102    1.0000 </r>
       <r>    0.1102    1.0000 </r>
       <r>    0.8615    1.0000 </r>
       <r>    7.5371    1.0000 </r>
       <r>    8.2603    1.0000 </r>
       <r>    8.2603    1.0000 </r>
       <r>    8.9826    1.0000 </r>
       <r>    9.1315    0.9966 </r>
       <r>    9.8373    0.0000 </r>
       <r>    9.8373    0.0000 </r>
       <r>   10.5438    0.0000 </r>
       <r>   15.6921    0.0000 </r>
       <r>   15.7757    0.0000 </r>
       <r>   15.7757    0.0000 </r>
       <r>   16.9185    0.0000 </r>
      </set>
      <set comment="kpoint 22">
       <r>   -4.0913    1.0000 </r>
       <r>    2.7396    1.0000 </r>
       <r>    2.7396    1.0000 </r>
       <r>    2.7396    1.0000 </r>
       <r>    7.1614    1.0000 </r>
       <r>    7.1614    1.0000 </r>
       <r>    7.1614    1.0000 </r>
       <r>    9.4529   -0.0504 </r>
       <r>    9.4529   -0.0504 </r>
       <r>    9.4529   -0.0504 </r>
       <r>   12.7421    0.0000 </r>
       <r>   12.7421    0.0000 </r>
       <r>   12.7421    0.0000 </r>
       <r>   15.1675    0.0000 </r>
       <r>   15.1675    0.0000 </r>
       <r>   15.1675    0.0000 </r>
      </set>
      <set comment="kpoint 23">
       <r>   -3.8339    1.0000 </r>
       <r>    1.4971    1.0000 </r>
       <r>    2.9828    1.0000 </r>
       <r>    2.9828    1.0000 </r>
       <r>    7.2954    1.0000 </r>
       <r>    7.2954    1.0000 </r>
       <r>    8.3835    1.0000 </r>
       <r>    8.3835    1.0000 </r>
       <r>    8.7410    1.0000 </r>
       <r>    9.7843    0.0000 </r>
       <r>   12.3313    0.0000 </r>
       <r>   12.3313    0.0000 </r>
       <r>   12.9683    0.0000 </r>
       <r>   14.4933    0.0000 </r>
       <r>   15.4245    0.0000 </r>
       <r>   16.0937    0.0000 </r>
      </set>
      <set comment="kpoint 24">
       <r>   -3.4482    1.0000 </r>
       <r>    0.3681    1.0000 </r>
       <r>    3.3441    1.0000 </r>
       <r>    3.3441    1.0000 </r>
       <r>    6.9465    1.0000 </r>
       <r>    6.9465    1.0000 </r>
       <r>    8.0093    1.0000 </r>
       <r>    8.0093    1.0000 </r>
       <r>    9.8151    0.0000 </r>
       <r>   10.8277    0.0000 </r>
       <r>   11.4788    0.0000 </r>
       <r>   11.4788    0.0000 </r>
       <r>   13.3070    0.0000 </r>
       <r>   13.4711    0.0000 </r>
       <r>   15.8140    0.0000 </r>
       <r>   16.6423    0.0000 </r>
      </set>
      <set comment="kpoint 25">
       <r>   -2.9351    1.0000 </r>
       <r>   -0.6421    1.0000 </r>
       <r>    3.8136    1.0000 </r>
       <r>    3.8136    1.0000 </r>
       <r>    6.1066    1.0000 </r>
       <r>    6.1066    1.0000 </r>
       <r>    8.3439    1.0000 </r>
       <r>    8.3439    1.0000 </r>
       <r>   10.3885    0.0000 </r>
       <r>   10.6375    0.0000 </r>
       <r>   10.6375    0.0000 </r>
       <r>   12.5446    0.0000 </r>
       <r>   12.5453    0.0000 </r>
       <r>   13.7576    0.0000 </r>
       <r>   15.7654    0.0000 </r>
       <r>   16.3460    0.0000 </r>
      </set>
      <set comment="kpoint 26">
       <r>   -2.2955    1.0000 </r>
       <r>   -1.5307    1.0000 </r>
       <r>    4.3321    1.0000 </r>
       <r>    4.3321    1.0000 </r>
       <r>    5.3706    1.0000 </r>
       <r>    5.3706    1.0000 </r>
       <r>    8.7735    1.0000 </r>
       <r>    8.7735    1.0000 </r>
       <r>    9.9761    0.0000 </r>
       <r>    9.9761    0.0000 </r>
       <r>   11.0050    0.0000 </r>
       <r>   11.7217    0.0000 </r>
       <r>   14.3189    0.0000 </r>
       <r>   14.3272    0.0000 </r>
       <r>   14.9892    0.0000 </r>
       <r>   15.9629    0.0000 </r>
      </set>
      <set comment="kpoint 27">
       <r>   -3.5768    1.0000 </r>
       <r>    1.7440    1.0000 </r>
       <r>    1.7440    1.0000 </r>
       <r>    3.2213    1.0000 </r>
       <r>    6.8259    1.0000 </r>
       <r>    7.9145    1.0000 </r>
       <r>    8.2705    1.0000 </r>
       <r>    8.2705    1.0000 </r>
       <r>    9.3126    0.9399 </r>
       <r>    9.3126    0.9399 </r>
       <r>   12.5700    0.0000 </r>
       <r>   12.5700    0.0000 </r>
       <r>   13.1887    0.0000 </r>
       <r>   13.3706    0.0000 </r>
       <r>   15.7399    0.0000 </r>
       <r>   16.3408    0.0000 </r>
      </set>
      <set comment="kpoint 28">
       <r>   -3.1917    1.0000 </r>
       <r>    0.6178    1.0000 </r>
       <r>    2.1127    1.0000 </r>
       <r>    3.5682    1.0000 </r>
       <r>    5.8685    1.0000 </r>
       <r>    7.2975    1.0000 </r>
       <r>    8.1625    1.0000 </r>
       <r>    8.7354    1.0000 </r>
       <r>    9.5347    0.0006 </r>
       <r>   10.9488    0.0000 </r>
       <r>   11.7444    0.0000 </r>
       <r>   12.3341    0.0000 </r>
       <r>   12.9007    0.0000 </r>
       <r>   12.9379    0.0000 </r>
       <r>   16.1689    0.0000 </r>
       <r>   16.7212    0.0000 </r>
      </set>
      <set comment="kpoint 29">
       <r>   -2.6795    1.0000 </r>
       <r>   -0.3904    1.0000 </r>
       <r>    2.5993    1.0000 </r>
       <r>    3.9613    1.0000 </r>
       <r>    5.0170    1.0000 </r>
       <r>    6.3626    1.0000 </r>
       <r>    8.6015    1.0000 </r>
       <r>    9.2405    1.0356 </r>
       <r>    9.8456    0.0000 </r>
       <r>   11.0054    0.0000 </r>
       <r>   11.3974    0.0000 </r>
       <r>   12.1717    0.0000 </r>
       <r>   12.6433    0.0000 </r>
       <r>   13.5036    0.0000 </r>
       <r>   15.3025    0.0000 </r>
       <r>   17.2182    0.0000 </r>
      </set>
      <set comment="kpoint 30">
       <r>   -2.0409    1.0000 </r>
       <r>   -1.2773    1.0000 </r>
       <r>    3.1934    1.0000 </r>
       <r>    3.8332    1.0000 </r>
       <r>    4.9076    1.0000 </r>
       <r>    5.5419    1.0000 </r>
       <r>    9.1499    0.9954 </r>
       <r>    9.7174    0.0000 </r>
       <r>    9.8487    0.0000 </r>
       <r>   10.5678    0.0000 </r>
       <r>   10.9051    0.0000 </r>
       <r>   11.4515    0.0000 </r>
       <r>   13.7650    0.0000 </r>
       <r>   14.5101    0.0000 </r>
       <r>   14.7793    0.0000 </r>
       <r>   16.4302    0.0000 </r>
      </set>
      <set comment="kpoint 31">
       <r>   -2.8076    1.0000 </r>
       <r>    0.9911    1.0000 </r>
       <r>    0.9911    1.0000 </r>
       <r>    3.8371    1.0000 </r>
       <r>    4.8974    1.0000 </r>
       <r>    7.6850    1.0000 </r>
       <r>    7.6850    1.0000 </r>
       <r>    8.5003    1.0000 </r>
       <r>   11.1406    0.0000 </r>
       <r>   11.1406    0.0000 </r>
       <r>   11.2868    0.0000 </r>
       <r>   12.2258    0.0000 </r>
       <r>   12.2258    0.0000 </r>
       <r>   13.8539    0.0000 </r>
       <r>   15.2991    0.0000 </r>
       <r>   16.4985    0.0000 </r>
      </set>
      <set comment="kpoint 32">
       <r>   -2.2965    1.0000 </r>
       <r>   -0.0137    1.0000 </r>
       <r>    1.4862    1.0000 </r>
       <r>    3.5828    1.0000 </r>
       <r>    4.6700    1.0000 </r>
       <r>    6.7321    1.0000 </r>
       <r>    8.1779    1.0000 </r>
       <r>    8.9642    1.0000 </r>
       <r>   10.3422    0.0000 </r>
       <r>   10.8845    0.0000 </r>
       <r>   12.0623    0.0000 </r>
       <r>   12.2522    0.0000 </r>
       <r>   13.4000    0.0000 </r>
       <r>   13.6926    0.0000 </r>
       <r>   14.4387    0.0000 </r>
       <r>   17.5780    0.0000 </r>
      </set>
      <set comment="kpoint 33">
       <r>   -1.6596    1.0000 </r>
       <r>   -0.8981    1.0000 </r>
       <r>    2.0991    1.0000 </r>
       <r>    2.8188    1.0000 </r>
       <r>    5.1856    1.0000 </r>
       <r>    5.8938    1.0000 </r>
       <r>    8.7849    1.0000 </r>
       <r>    9.5070   -0.0155 </r>
       <r>    9.5395    0.0021 </r>
       <r>   10.2060    0.0000 </r>
       <r>   12.4965    0.0000 </r>
       <r>   12.9389    0.0000 </r>
       <r>   13.0931    0.0000 </r>
       <r>   13.6492    0.0000 </r>
       <r>   15.1384    0.0000 </r>
       <r>   16.8775    0.0000 </r>
      </set>
      <set comment="kpoint 34">
       <r>   -1.7872    1.0000 </r>
       <r>    0.4867    1.0000 </r>
       <r>    0.4867    1.0000 </r>
       <r>    2.6936    1.0000 </r>
       <r>    5.0656    1.0000 </r>
       <r>    7.2203    1.0000 </r>
       <r>    7.2203    1.0000 </r>
       <r>    9.3915    0.2151 </r>
       <r>    9.4393   -0.0354 </r>
       <r>   11.4789    0.0000 </r>
       <r>   11.4789    0.0000 </r>
       <r>   13.5789    0.0000 </r>
       <r>   13.7462    0.0000 </r>
       <r>   13.7462    0.0000 </r>
       <r>   14.7291    0.0000 </r>
       <r>   17.4744    0.0000 </r>
      </set>
      <set comment="kpoint 35">
       <r>   -1.1525    1.0000 </r>
       <r>   -0.3939    1.0000 </r>
       <r>    1.1087    1.0000 </r>
       <r>    1.8481    1.0000 </r>
       <r>    5.6548    1.0000 </r>
       <r>    6.3769    1.0000 </r>
       <r>    7.8274    1.0000 </r>
       <r>    8.5519    1.0000 </r>
       <r>   10.0242    0.0000 </r>
       <r>   10.7110    0.0000 </r>
       <r>   12.0917    0.0000 </r>
       <r>   12.7906    0.0000 </r>
       <r>   14.2245    0.0000 </r>
       <r>   14.6941    0.0000 </r>
       <r>   15.5276    0.0000 </r>
       <r>   17.1651    0.0000 </r>
      </set>
      <set comment="kpoint 36">
       <r>   -0.5208    1.0000 </r>
       <r>    0.2338    1.0000 </r>
       <r>    0.2338    1.0000 </r>
       <r>    0.9827    1.0000 </r>
       <r>    6.2574    1.0000 </r>
       <r>    6.9833    1.0000 </r>
       <r>    6.9833    1.0000 </r>
       <r>    7.7093    1.0000 </r>
       <r>   10.6143    0.0000 </r>
       <r>   11.3073    0.0000 </r>
       <r>   11.3073    0.0000 </r>
       <r>   12.0027    0.0000 </r>
       <r>   15.7946    0.0000 </r>
       <r>   15.8773    0.0000 </r>
       <r>   15.8773    0.0000 </r>
       <r>   17.0004    0.0000 </r>
      </set>
      <set comment="kpoint 37">
       <r>   -3.3201    1.0000 </r>
       <r>    1.9886    1.0000 </r>
       <r>    1.9886    1.0000 </r>
       <r>    1.9886    1.0000 </r>
       <r>    7.1804    1.0000 </r>
       <r>    7.1804    1.0000 </r>
       <r>    7.1804    1.0000 </r>
       <r>    9.4622   -0.0512 </r>
       <r>    9.4622   -0.0512 </r>
       <r>    9.4622   -0.0512 </r>
       <r>   12.2268    0.0000 </r>
       <r>   13.4138    0.0000 </r>
       <r>   13.4138    0.0000 </r>
       <r>   13.4138    0.0000 </r>
       <r>   15.9949    0.0000 </r>
       <r>   15.9949    0.0000 </r>
      </set>
      <set comment="kpoint 38">
       <r>   -2.9357    1.0000 </r>
       <r>    0.8660    1.0000 </r>
       <r>    2.3517    1.0000 </r>
       <r>    2.3517    1.0000 </r>
       <r>    6.1258    1.0000 </r>
       <r>    6.1258    1.0000 </r>
       <r>    7.5692    1.0000 </r>
       <r>    9.7857    0.0000 </r>
       <r>    9.7857    0.0000 </r>
       <r>   11.1763    0.0000 </r>
       <r>   11.1846    0.0000 </r>
       <r>   13.1375    0.0000 </r>
       <r>   13.1375    0.0000 </r>
       <r>   13.7505    0.0000 </r>
       <r>   16.3819    0.0000 </r>
       <r>   16.9785    0.0000 </r>
      </set>
      <set comment="kpoint 39">
       <r>   -2.4243    1.0000 </r>
       <r>   -0.1397    1.0000 </r>
       <r>    2.8223    1.0000 </r>
       <r>    2.8223    1.0000 </r>
       <r>    5.1844    1.0000 </r>
       <r>    5.1844    1.0000 </r>
       <r>    8.0629    1.0000 </r>
       <r>   10.2143    0.0000 </r>
       <r>   10.2143    0.0000 </r>
       <r>   10.2300    0.0000 </r>
       <r>   12.4342    0.0000 </r>
       <r>   12.4342    0.0000 </r>
       <r>   12.9744    0.0000 </r>
       <r>   14.1980    0.0000 </r>
       <r>   16.1785    0.0000 </r>
       <r>   16.9123    0.0000 </r>
      </set>
      <set comment="kpoint 40">
       <r>   -1.7869    1.0000 </r>
       <r>   -1.0247    1.0000 </r>
       <r>    3.3356    1.0000 </r>
       <r>    3.3356    1.0000 </r>
       <r>    4.4340    1.0000 </r>
       <r>    4.4340    1.0000 </r>
       <r>    8.6707    1.0000 </r>
       <r>    9.3936    0.1977 </r>
       <r>   10.6604    0.0000 </r>
       <r>   10.6604    0.0000 </r>
       <r>   11.8114    0.0000 </r>
       <r>   11.8114    0.0000 </r>
       <r>   14.7475    0.0000 </r>
       <r>   14.7543    0.0000 </r>
       <r>   15.4162    0.0000 </r>
       <r>   16.3296    0.0000 </r>
      </set>
      <set comment="kpoint 41">
       <r>   -2.5522    1.0000 </r>
       <r>    1.2364    1.0000 </r>
       <r>    1.2364    1.0000 </r>
       <r>    2.6981    1.0000 </r>
       <r>    5.0639    1.0000 </r>
       <r>    6.4962    1.0000 </r>
       <r>    6.4962    1.0000 </r>
       <r>   10.1157    0.0000 </r>
       <r>   10.1384    0.0000 </r>
       <r>   11.5014    0.0000 </r>
       <r>   11.5014    0.0000 </r>
       <r>   13.5019    0.0000 </r>
       <r>   13.5019    0.0000 </r>
       <r>   14.0765    0.0000 </r>
       <r>   16.5933    0.0000 </r>
       <r>   16.7469    0.0000 </r>
      </set>
      <set comment="kpoint 42">
       <r>   -2.0422    1.0000 </r>
       <r>    0.2353    1.0000 </r>
       <r>    1.7254    1.0000 </r>
       <r>    3.0853    1.0000 </r>
       <r>    4.1936    1.0000 </r>
       <r>    5.5362    1.0000 </r>
       <r>    6.9855    1.0000 </r>
       <r>    9.1617    0.9951 </r>
       <r>   10.5954    0.0000 </r>
       <r>   11.8251    0.0000 </r>
       <r>   12.9075    0.0000 </r>
       <r>   13.1961    0.0000 </r>
       <r>   13.9255    0.0000 </r>
       <r>   14.0602    0.0000 </r>
       <r>   15.8055    0.0000 </r>
       <r>   17.8343    0.0000 </r>
      </set>
      <set comment="kpoint 43">
       <r>   -1.4065    1.0000 </r>
       <r>   -0.6467    1.0000 </r>
       <r>    2.3215    1.0000 </r>
       <r>    2.9583    1.0000 </r>
       <r>    4.0753    1.0000 </r>
       <r>    4.7063    1.0000 </r>
       <r>    7.5939    1.0000 </r>
       <r>    8.3200    1.0000 </r>
       <r>   11.1410    0.0000 </r>
       <r>   11.6970    0.0000 </r>
       <r>   12.8424    0.0000 </r>
       <r>   13.3498    0.0000 </r>
       <r>   14.3121    0.0000 </r>
       <r>   15.0432    0.0000 </r>
       <r>   15.2993    0.0000 </r>
       <r>   16.8574    0.0000 </r>
      </set>
      <set comment="kpoint 44">
       <r>   -1.5340    1.0000 </r>
       <r>    0.7325    1.0000 </r>
       <r>    0.7325    1.0000 </r>
       <r>    2.8322    1.0000 </r>
       <r>    3.9549    1.0000 </r>
       <r>    6.0202    1.0000 </r>
       <r>    6.0202    1.0000 </r>
       <r>    8.2022    1.0000 </r>
       <r>   11.0675    0.0000 </r>
       <r>   12.9326    0.0000 </r>
       <r>   12.9326    0.0000 </r>
       <r>   14.0525    0.0000 </r>
       <r>   14.0525    0.0000 </r>
       <r>   14.9459    0.0000 </r>
       <r>   15.0486    0.0000 </r>
       <r>   17.7097    0.0000 </r>
      </set>
      <set comment="kpoint 45">
       <r>   -0.9008    1.0000 </r>
       <r>   -0.1445    1.0000 </r>
       <r>    1.3481    1.0000 </r>
       <r>    2.0703    1.0000 </r>
       <r>    4.4647    1.0000 </r>
       <r>    5.1754    1.0000 </r>
       <r>    6.6282    1.0000 </r>
       <r>    7.3564    1.0000 </r>
       <r>   11.6356    0.0000 </r>
       <r>   12.2826    0.0000 </r>
       <r>   13.6085    0.0000 </r>
       <r>   14.2988    0.0000 </r>
       <r>   14.4668    0.0000 </r>
       <r>   14.9179    0.0000 </r>
       <r>   15.7214    0.0000 </r>
       <r>   17.2633    0.0000 </r>
      </set>
      <set comment="kpoint 46">
       <r>   -0.2712    1.0000 </r>
       <r>    0.4799    1.0000 </r>
       <r>    0.4799    1.0000 </r>
       <r>    1.2221    1.0000 </r>
       <r>    5.0545    1.0000 </r>
       <r>    5.7797    1.0000 </r>
       <r>    5.7797    1.0000 </r>
       <r>    6.5083    1.0000 </r>
       <r>   12.2156    0.0000 </r>
       <r>   12.8817    0.0000 </r>
       <r>   12.8817    0.0000 </r>
       <r>   13.5572    0.0000 </r>
       <r>   15.9961    0.0000 </r>
       <r>   16.0754    0.0000 </r>
       <r>   16.0754    0.0000 </r>
       <r>   17.1502    0.0000 </r>
      </set>
      <set comment="kpoint 47">
       <r>   -2.1699    1.0000 </r>
       <r>    1.6005    1.0000 </r>
       <r>    1.6005    1.0000 </r>
       <r>    1.6005    1.0000 </r>
       <r>    5.4157    1.0000 </r>
       <r>    5.4157    1.0000 </r>
       <r>    5.4157    1.0000 </r>
       <r>    9.0453    0.9999 </r>
       <r>   11.8643    0.0000 </r>
       <r>   11.8643    0.0000 </r>
       <r>   11.8643    0.0000 </r>
       <r>   14.4089    0.0000 </r>
       <r>   14.4089    0.0000 </r>
       <r>   14.4089    0.0000 </r>
       <r>   17.1223    0.0000 </r>
       <r>   17.1223    0.0000 </r>
      </set>
      <set comment="kpoint 48">
       <r>   -1.6613    1.0000 </r>
       <r>    0.6068    1.0000 </r>
       <r>    2.0716    1.0000 </r>
       <r>    2.0716    1.0000 </r>
       <r>    4.4639    1.0000 </r>
       <r>    4.4639    1.0000 </r>
       <r>    5.9001    1.0000 </r>
       <r>    8.0842    1.0000 </r>
       <r>   12.2958    0.0000 </r>
       <r>   12.2958    0.0000 </r>
       <r>   13.6326    0.0000 </r>
       <r>   14.2826    0.0000 </r>
       <r>   14.2826    0.0000 </r>
       <r>   14.8491    0.0000 </r>
       <r>   16.7577    0.0000 </r>
       <r>   17.6367    0.0000 </r>
      </set>
      <set comment="kpoint 49">
       <r>   -1.0277    1.0000 </r>
       <r>   -0.2708    1.0000 </r>
       <r>    2.5812    1.0000 </r>
       <r>    2.5812    1.0000 </r>
       <r>    3.7131    1.0000 </r>
       <r>    3.7131    1.0000 </r>
       <r>    6.5085    1.0000 </r>
       <r>    7.2376    1.0000 </r>
       <r>   12.7274    0.0000 </r>
       <r>   12.7274    0.0000 </r>
       <r>   13.8075    0.0000 </r>
       <r>   13.8075    0.0000 </r>
       <r>   15.3534    0.0000 </r>
       <r>   15.3932    0.0000 </r>
       <r>   16.0341    0.0000 </r>
       <r>   16.8095    0.0000 </r>
      </set>
      <set comment="kpoint 50">
       <r>   -1.1549    1.0000 </r>
       <r>    1.0971    1.0000 </r>
       <r>    1.0971    1.0000 </r>
       <r>    2.4552    1.0000 </r>
       <r>    3.5919    1.0000 </r>
       <r>    4.9331    1.0000 </r>
       <r>    4.9331    1.0000 </r>
       <r>    7.1181    1.0000 </r>
       <r>   12.7678    0.0000 </r>
       <r>   13.9584    0.0000 </r>
       <r>   13.9584    0.0000 </r>
       <r>   14.8240    0.0000 </r>
       <r>   14.8240    0.0000 </r>
       <r>   15.2678    0.0000 </r>
       <r>   16.4234    0.0000 </r>
       <r>   17.8534    0.0000 </r>
      </set>
      <set comment="kpoint 51">
       <r>   -0.5245    1.0000 </r>
       <r>    0.2277    1.0000 </r>
       <r>    1.6940    1.0000 </r>
       <r>    2.3283    1.0000 </r>
       <r>    3.4712    1.0000 </r>
       <r>    4.0998    1.0000 </r>
       <r>    5.5382    1.0000 </r>
       <r>    6.2681    1.0000 </r>
       <r>   13.2993    0.0000 </r>
       <r>   13.8233    0.0000 </r>
       <r>   14.8799    0.0000 </r>
       <r>   15.0563    0.0000 </r>
       <r>   15.2570    0.0000 </r>
       <r>   15.7521    0.0000 </r>
       <r>   15.9760    0.0000 </r>
       <r>   17.3043    0.0000 </r>
      </set>
      <set comment="kpoint 52">
       <r>    0.1011    1.0000 </r>
       <r>    0.8447    1.0000 </r>
       <r>    0.8447    1.0000 </r>
       <r>    1.5679    1.0000 </r>
       <r>    3.9780    1.0000 </r>
       <r>    4.6901    1.0000 </r>
       <r>    4.6901    1.0000 </r>
       <r>    5.4170    1.0000 </r>
       <r>   13.8676    0.0000 </r>
       <r>   14.4777    0.0000 </r>
       <r>   14.4777    0.0000 </r>
       <r>   15.1193    0.0000 </r>
       <r>   16.2880    0.0000 </r>
       <r>   16.3570    0.0000 </r>
       <r>   16.3570    0.0000 </r>
       <r>   17.3275    0.0000 </r>
      </set>
      <set comment="kpoint 53">
       <r>   -0.6513    1.0000 </r>
       <r>    1.5683    1.0000 </r>
       <r>    1.5683    1.0000 </r>
       <r>    1.5683    1.0000 </r>
       <r>    3.9777    1.0000 </r>
       <r>    3.9777    1.0000 </r>
       <r>    3.9777    1.0000 </r>
       <r>    6.1475    1.0000 </r>
       <r>   14.4860    0.0000 </r>
       <r>   14.4860    0.0000 </r>
       <r>   14.4860    0.0000 </r>
       <r>   15.6895    0.0000 </r>
       <r>   15.6895    0.0000 </r>
       <r>   15.6895    0.0000 </r>
       <r>   17.3637    0.0000 </r>
       <r>   17.3637    0.0000 </r>
      </set>
      <set comment="kpoint 54">
       <r>   -0.0254    1.0000 </r>
       <r>    0.7186    1.0000 </r>
       <r>    2.0754    1.0000 </r>
       <r>    2.0754    1.0000 </r>
       <r>    3.2281    1.0000 </r>
       <r>    3.2281    1.0000 </r>
       <r>    4.5682    1.0000 </r>
       <r>    5.2956    1.0000 </r>
       <r>   14.9000    0.0000 </r>
       <r>   14.9000    0.0000 </r>
       <r>   15.7512    0.0000 </r>
       <r>   15.7512    0.0000 </r>
       <r>   16.0971    0.0000 </r>
       <r>   16.2001    0.0000 </r>
       <r>   16.7759    0.0000 </r>
       <r>   17.2578    0.0000 </r>
      </set>
      <set comment="kpoint 55">
       <r>    0.5922    1.0000 </r>
       <r>    1.3159    1.0000 </r>
       <r>    1.3159    1.0000 </r>
       <r>    1.9485    1.0000 </r>
       <r>    3.1065    1.0000 </r>
       <r>    3.7335    1.0000 </r>
       <r>    3.7335    1.0000 </r>
       <r>    4.4462    1.0000 </r>
       <r>   15.4887    0.0000 </r>
       <r>   15.9533    0.0000 </r>
       <r>   15.9533    0.0000 </r>
       <r>   16.5345    0.0000 </r>
       <r>   16.6507    0.0000 </r>
       <r>   16.6889    0.0000 </r>
       <r>   16.6889    0.0000 </r>
       <r>   17.4381    0.0000 </r>
      </set>
      <set comment="kpoint 56">
       <r>    1.1896    1.0000 </r>
       <r>    1.8216    1.0000 </r>
       <r>    1.8216    1.0000 </r>
       <r>    1.8216    1.0000 </r>
       <r>    2.9846    1.0000 </r>
       <r>    2.9846    1.0000 </r>
       <r>    2.9846    1.0000 </r>
       <r>    3.6111    1.0000 </r>
       <r>   16.8579    0.0000 </r>
       <r>   16.8579    0.0000 </r>
       <r>   16.8579    0.0000 </r>
       <r>   17.0372    0.0000 </r>
       <r>   17.0372    0.0000 </r>
       <r>   17.0372    0.0000 </r>
       <r>   17.3448    0.0000 </r>
       <r>   17.3448    0.0000 </r>
      </set>
     </set>
    </set>
   </array>
  </eigenvalues>
  <separator name="orbital magnetization" >
   <v name="MAGDIPOLOUT">      0.00000000      0.00000000      0.00000000</v>
  </separator>
  <dos>
   <i name="efermi">      9.36283612 </i>
   <total>
    <array>
     <dimension dim="1">gridpoints</dimension>
     <dimension dim="2">spin</dimension>
     <field>energy</field>
     <field>total</field>
     <field>integrated</field>
     <set>
      <set comment="spin 1">
       <r>    -5.6081     0.0000     0.0000 </r>
       <r>    -5.5252     0.0000     0.0000 </r>
       <r>    -5.4423     0.0000     0.0000 </r>
       <r>    -5.3595     0.0000     0.0000 </r>
       <r>    -5.2766     0.0000     0.0000 </r>
       <r>    -5.1938     0.0000     0.0000 </r>
       <r>    -5.1109     0.0000     0.0000 </r>
       <r>    -5.0281     0.0000     0.0000 </r>
       <r>    -4.9452     0.0000     0.0000 </r>
       <r>    -4.8624     0.0000     0.0000 </r>
       <r>    -4.7795     0.0000     0.0000 </r>
       <r>    -4.6966     0.0005     0.0000 </r>
       <r>    -4.6138    -0.0026    -0.0002 </r>
       <r>    -4.5309     0.0085     0.0005 </r>
       <r>    -4.4481     0.0668     0.0061 </r>
       <r>    -4.3652     0.1507     0.0185 </r>
       <r>    -4.2824     0.2300     0.0376 </r>
       <r>    -4.1995     0.2163     0.0555 </r>
       <r>    -4.1167     0.2319     0.0747 </r>
       <r>    -4.0338     0.3008     0.0997 </r>
       <r>    -3.9509     0.4389     0.1360 </r>
       <r>    -3.8681     0.3459     0.1647 </r>
       <r>    -3.7852     0.1998     0.1812 </r>
       <r>    -3.7024     0.3786     0.2126 </r>
       <r>    -3.6195     0.4762     0.2521 </r>
       <r>    -3.5367     0.7302     0.3126 </r>
       <r>    -3.4538     0.3030     0.3377 </r>
       <r>    -3.3710     0.2248     0.3563 </r>
       <r>    -3.2881     0.5328     0.4004 </r>
       <r>    -3.2053     0.5769     0.4482 </r>
       <r>    -3.1224     0.6543     0.5024 </r>
       <r>    -3.0395     0.4283     0.5379 </r>
       <r>    -2.9567     0.5153     0.5806 </r>
       <r>    -2.8738     0.6860     0.6375 </r>
       <r>    -2.7910     0.6767     0.6935 </r>
       <r>    -2.7081     0.5350     0.7379 </r>
       <r>    -2.6253     0.4401     0.7743 </r>
       <r>    -2.5424     0.3907     0.8067 </r>
       <r>    -2.4596     0.6107     0.8573 </r>
       <r>    -2.3767     1.2143     0.9579 </r>
       <r>    -2.2938     0.7245     1.0179 </r>
       <r>    -2.2110     0.5768     1.0657 </r>
       <r>    -2.1281     0.4993     1.1071 </r>
       <r>    -2.0453     0.7963     1.1731 </r>
       <r>    -1.9624     0.7817     1.2379 </r>
       <r>    -1.8796     0.1276     1.2484 </r>
       <r>    -1.7967     0.7605     1.3114 </r>
       <r>    -1.7139     1.1533     1.4070 </r>
       <r>    -1.6310     1.1831     1.5050 </r>
       <r>    -1.5481     0.6622     1.5599 </r>
       <r>    -1.4653     0.4171     1.5944 </r>
       <r>    -1.3824     0.9013     1.6691 </r>
       <r>    -1.2996     0.8426     1.7389 </r>
       <r>    -1.2167     0.9056     1.8140 </r>
       <r>    -1.1339     0.6757     1.8700 </r>
       <r>    -1.0510     0.6925     1.9273 </r>
       <r>    -0.9682     0.9199     2.0035 </r>
       <r>    -0.8853     1.1380     2.0978 </r>
       <r>    -0.8024     0.7929     2.1635 </r>
       <r>    -0.7196     0.4020     2.1968 </r>
       <r>    -0.6367     0.8714     2.2690 </r>
       <r>    -0.5539     1.1338     2.3630 </r>
       <r>    -0.4710     1.6651     2.5009 </r>
       <r>    -0.3882     0.9758     2.5818 </r>
       <r>    -0.3053     0.7409     2.6432 </r>
       <r>    -0.2225     0.3935     2.6758 </r>
       <r>    -0.1396     0.9613     2.7554 </r>
       <r>    -0.0567     1.0361     2.8413 </r>
       <r>     0.0261     0.6513     2.8952 </r>
       <r>     0.1090     0.7496     2.9573 </r>
       <r>     0.1918     1.0753     3.0464 </r>
       <r>     0.2747     1.9597     3.2088 </r>
       <r>     0.3575     0.8469     3.2790 </r>
       <r>     0.4404     0.7357     3.3399 </r>
       <r>     0.5232     1.4665     3.4614 </r>
       <r>     0.6061     1.0299     3.5468 </r>
       <r>     0.6890     0.8384     3.6162 </r>
       <r>     0.7718     0.6540     3.6704 </r>
       <r>     0.8547     1.0879     3.7606 </r>
       <r>     0.9375     1.2623     3.8652 </r>
       <r>     1.0204     1.1646     3.9616 </r>
       <r>     1.1032     1.0581     4.0493 </r>
       <r>     1.1861     0.8114     4.1165 </r>
       <r>     1.2689     0.9958     4.1990 </r>
       <r>     1.3518     1.6733     4.3377 </r>
       <r>     1.4347     1.3726     4.4514 </r>
       <r>     1.5175     0.7083     4.5101 </r>
       <r>     1.6004     1.0765     4.5993 </r>
       <r>     1.6832     1.2261     4.7009 </r>
       <r>     1.7661     1.9036     4.8586 </r>
       <r>     1.8489     1.0093     4.9422 </r>
       <r>     1.9318     0.5246     4.9857 </r>
       <r>     2.0146     1.4435     5.1053 </r>
       <r>     2.0975     2.5580     5.3172 </r>
       <r>     2.1804     1.3052     5.4254 </r>
       <r>     2.2632    -0.1255     5.4150 </r>
       <r>     2.3461     1.2407     5.5178 </r>
       <r>     2.4289     0.9816     5.5991 </r>
       <r>     2.5118     0.8018     5.6656 </r>
       <r>     2.5946     1.4327     5.7843 </r>
       <r>     2.6775     1.6019     5.9170 </r>
       <r>     2.7603     1.1687     6.0138 </r>
       <r>     2.8432     1.5543     6.1426 </r>
       <r>     2.9261     1.1835     6.2407 </r>
       <r>     3.0089     1.1119     6.3328 </r>
       <r>     3.0918     1.1712     6.4298 </r>
       <r>     3.1746     1.1978     6.5291 </r>
       <r>     3.2575     1.6165     6.6630 </r>
       <r>     3.3403     1.1241     6.7561 </r>
       <r>     3.4232     0.6643     6.8112 </r>
       <r>     3.5060     0.5066     6.8532 </r>
       <r>     3.5889     1.6719     6.9917 </r>
       <r>     3.6718     1.1276     7.0851 </r>
       <r>     3.7546     1.4492     7.2052 </r>
       <r>     3.8375     2.0993     7.3791 </r>
       <r>     3.9203     1.2949     7.4864 </r>
       <r>     4.0032     1.5985     7.6189 </r>
       <r>     4.0860     1.2413     7.7217 </r>
       <r>     4.1689     1.1546     7.8174 </r>
       <r>     4.2517     1.0083     7.9009 </r>
       <r>     4.3346     1.3165     8.0100 </r>
       <r>     4.4175     1.1939     8.1089 </r>
       <r>     4.5003     1.9977     8.2744 </r>
       <r>     4.5832     1.6297     8.4095 </r>
       <r>     4.6660     1.5539     8.5382 </r>
       <r>     4.7489     1.6032     8.6710 </r>
       <r>     4.8317     0.3838     8.7028 </r>
       <r>     4.9146     1.2772     8.8087 </r>
       <r>     4.9974     1.8207     8.9595 </r>
       <r>     5.0803     1.9417     9.1204 </r>
       <r>     5.1632     1.3864     9.2353 </r>
       <r>     5.2460     1.2891     9.3421 </r>
       <r>     5.3289     0.3397     9.3702 </r>
       <r>     5.4117     1.0739     9.4592 </r>
       <r>     5.4946     1.3715     9.5728 </r>
       <r>     5.5774     2.9375     9.8162 </r>
       <r>     5.6603     1.7667     9.9626 </r>
       <r>     5.7431     0.9290    10.0396 </r>
       <r>     5.8260     1.2991    10.1472 </r>
       <r>     5.9089     3.0152    10.3970 </r>
       <r>     5.9917     1.4605    10.5181 </r>
       <r>     6.0746     1.5397    10.6456 </r>
       <r>     6.1574     2.3034    10.8365 </r>
       <r>     6.2403     0.4388    10.8728 </r>
       <r>     6.3231     0.9785    10.9539 </r>
       <r>     6.4060     1.9769    11.1177 </r>
       <r>     6.4888     1.9216    11.2769 </r>
       <r>     6.5717     1.4432    11.3965 </r>
       <r>     6.6546     0.6315    11.4488 </r>
       <r>     6.7374     0.6212    11.5003 </r>
       <r>     6.8203     1.3690    11.6137 </r>
       <r>     6.9031     0.7314    11.6743 </r>
       <r>     6.9860     2.3388    11.8681 </r>
       <r>     7.0688     1.9060    12.0260 </r>
       <r>     7.1517     1.9589    12.1883 </r>
       <r>     7.2345     2.7614    12.4171 </r>
       <r>     7.3174     2.7009    12.6409 </r>
       <r>     7.4003     1.4675    12.7625 </r>
       <r>     7.4831     1.4112    12.8794 </r>
       <r>     7.5660     1.4810    13.0021 </r>
       <r>     7.6488     1.8888    13.1586 </r>
       <r>     7.7317     1.8413    13.3112 </r>
       <r>     7.8145     0.4122    13.3453 </r>
       <r>     7.8974     0.5624    13.3919 </r>
       <r>     7.9802     1.3102    13.5005 </r>
       <r>     8.0631     1.8740    13.6558 </r>
       <r>     8.1460     1.8130    13.8060 </r>
       <r>     8.2288     1.8618    13.9602 </r>
       <r>     8.3117     2.0241    14.1279 </r>
       <r>     8.3945     2.2697    14.3160 </r>
       <r>     8.4774     1.4372    14.4351 </r>
       <r>     8.5602     2.9424    14.6789 </r>
       <r>     8.6431     1.2955    14.7862 </r>
       <r>     8.7259     1.5095    14.9113 </r>
       <r>     8.8088     2.4801    15.1168 </r>
       <r>     8.8917     0.7999    15.1830 </r>
       <r>     8.9745     1.1713    15.2801 </r>
       <r>     9.0574     1.3645    15.3932 </r>
       <r>     9.1402     1.7330    15.5367 </r>
       <r>     9.2231     2.0721    15.7084 </r>
       <r>     9.3059     2.0033    15.8744 </r>
       <r>     9.3888     2.1731    16.0545 </r>
       <r>     9.4716     2.2184    16.2383 </r>
       <r>     9.5545     2.8891    16.4777 </r>
       <r>     9.6374     0.6733    16.5334 </r>
       <r>     9.7202     0.3360    16.5613 </r>
       <r>     9.8031     2.4705    16.7660 </r>
       <r>     9.8859     3.0293    17.0170 </r>
       <r>     9.9688     1.4601    17.1379 </r>
       <r>    10.0516     2.0327    17.3064 </r>
       <r>    10.1345     1.5665    17.4362 </r>
       <r>    10.2173     1.4092    17.5529 </r>
       <r>    10.3002     1.7040    17.6941 </r>
       <r>    10.3831     1.5272    17.8206 </r>
       <r>    10.4659     1.3865    17.9355 </r>
       <r>    10.5488     2.1823    18.1163 </r>
       <r>    10.6316     2.7999    18.3483 </r>
       <r>    10.7145     3.4423    18.6335 </r>
       <r>    10.7973     1.2959    18.7409 </r>
       <r>    10.8802     1.2251    18.8424 </r>
       <r>    10.9630     2.9107    19.0836 </r>
       <r>    11.0459     1.6576    19.2209 </r>
       <r>    11.1288     1.8203    19.3717 </r>
       <r>    11.2116     1.3205    19.4812 </r>
       <r>    11.2945     1.2283    19.5829 </r>
       <r>    11.3773     3.0886    19.8388 </r>
       <r>    11.4602     1.8377    19.9911 </r>
       <r>    11.5430     2.7468    20.2187 </r>
       <r>    11.6259     1.9361    20.3791 </r>
       <r>    11.7087     1.1967    20.4783 </r>
       <r>    11.7916     2.3819    20.6756 </r>
       <r>    11.8745     3.5719    20.9716 </r>
       <r>    11.9573     0.8010    21.0379 </r>
       <r>    12.0402     1.3853    21.1527 </r>
       <r>    12.1230     1.8631    21.3071 </r>
       <r>    12.2059     2.2429    21.4929 </r>
       <r>    12.2887     4.1229    21.8345 </r>
       <r>    12.3716     3.0593    22.0880 </r>
       <r>    12.4544     1.6711    22.2265 </r>
       <r>    12.5373     2.0008    22.3922 </r>
       <r>    12.6202     2.3463    22.5867 </r>
       <r>    12.7030     1.6659    22.7247 </r>
       <r>    12.7859     1.8054    22.8743 </r>
       <r>    12.8687     1.9203    23.0334 </r>
       <r>    12.9516     4.2054    23.3818 </r>
       <r>    13.0344     2.9264    23.6243 </r>
       <r>    13.1173     1.4568    23.7450 </r>
       <r>    13.2001     2.2991    23.9355 </r>
       <r>    13.2830     1.9650    24.0983 </r>
       <r>    13.3659     1.6200    24.2325 </r>
       <r>    13.4487     1.7938    24.3811 </r>
       <r>    13.5316     2.0153    24.5481 </r>
       <r>    13.6144     2.9338    24.7912 </r>
       <r>    13.6973     2.1246    24.9672 </r>
       <r>    13.7801     2.7314    25.1935 </r>
       <r>    13.8630     2.1308    25.3701 </r>
       <r>    13.9458     1.1451    25.4650 </r>
       <r>    14.0287     1.6421    25.6010 </r>
       <r>    14.1116     2.5242    25.8102 </r>
       <r>    14.1944     1.4018    25.9263 </r>
       <r>    14.2773     1.6960    26.0668 </r>
       <r>    14.3601     2.0314    26.2352 </r>
       <r>    14.4430     1.7726    26.3820 </r>
       <r>    14.5258     2.9048    26.6227 </r>
       <r>    14.6087     1.2148    26.7234 </r>
       <r>    14.6915     1.6126    26.8570 </r>
       <r>    14.7744     2.4390    27.0591 </r>
       <r>    14.8572     1.9704    27.2223 </r>
       <r>    14.9401     2.4763    27.4275 </r>
       <r>    15.0230     2.2539    27.6142 </r>
       <r>    15.1058     2.5799    27.8280 </r>
       <r>    15.1887     1.0164    27.9122 </r>
       <r>    15.2715     1.0978    28.0032 </r>
       <r>    15.3544     2.0547    28.1734 </r>
       <r>    15.4372     1.8488    28.3266 </r>
       <r>    15.5201     1.6580    28.4640 </r>
       <r>    15.6029     1.2040    28.5637 </r>
       <r>    15.6858     1.1556    28.6595 </r>
       <r>    15.7687     3.9112    28.9835 </r>
       <r>    15.8515     3.0338    29.2349 </r>
       <r>    15.9344     1.7117    29.3767 </r>
       <r>    16.0172     2.2389    29.5622 </r>
       <r>    16.1001     1.9280    29.7220 </r>
       <r>    16.1829     2.1129    29.8970 </r>
       <r>    16.2658     0.6409    29.9501 </r>
       <r>    16.3486     1.2225    30.0514 </r>
       <r>    16.4315     2.0613    30.2222 </r>
       <r>    16.5144     1.4875    30.3454 </r>
       <r>    16.5972     1.4885    30.4688 </r>
       <r>    16.6801     1.9264    30.6284 </r>
       <r>    16.7629     1.7655    30.7747 </r>
       <r>    16.8458     1.8692    30.9295 </r>
       <r>    16.9286     1.9731    31.0930 </r>
       <r>    17.0115     0.7871    31.1582 </r>
       <r>    17.0943     0.7713    31.2222 </r>
       <r>    17.1772     1.2688    31.3273 </r>
       <r>    17.2601     1.4625    31.4485 </r>
       <r>    17.3429     1.6140    31.5822 </r>
       <r>    17.4258     0.9865    31.6639 </r>
       <r>    17.5086     0.9155    31.7398 </r>
       <r>    17.5915     0.6046    31.7899 </r>
       <r>    17.6743     0.5571    31.8360 </r>
       <r>    17.7572     0.2457    31.8564 </r>
       <r>    17.8400     0.5610    31.9029 </r>
       <r>    17.9229     0.5431    31.9479 </r>
       <r>    18.0058    -0.0681    31.9422 </r>
       <r>    18.0886     0.1604    31.9555 </r>
       <r>    18.1715     0.5056    31.9974 </r>
       <r>    18.2543     0.0466    32.0013 </r>
       <r>    18.3372    -0.0183    31.9998 </r>
       <r>    18.4200     0.0027    32.0000 </r>
       <r>    18.5029     0.0002    32.0000 </r>
       <r>    18.5857     0.0000    32.0000 </r>
       <r>    18.6686     0.0000    32.0000 </r>
       <r>    18.7515     0.0000    32.0000 </r>
       <r>    18.8343     0.0000    32.0000 </r>
       <r>    18.9172     0.0000    32.0000 </r>
       <r>    19.0000     0.0000    32.0000 </r>
       <r>    19.0829     0.0000    32.0000 </r>
       <r>    19.1657     0.0000    32.0000 </r>
       <r>    19.2486     0.0000    32.0000 </r>
      </set>
     </set>
    </array>
   </total>
  </dos>
 </calculation>
 <structure name="finalpos" >
  <crystal>
   <varray name="basis" >
    <v>       3.95077671       0.00000000       0.00000000 </v>
    <v>       0.00000000       3.95077671       0.00000000 </v>
    <v>       0.00000000       0.00000000       3.95077671 </v>
   </varray>
   <i name="volume">     61.66623803 </i>
   <varray name="rec_basis" >
    <v>       0.25311479       0.00000000       0.00000000 </v>
    <v>       0.00000000       0.25311479       0.00000000 </v>
    <v>       0.00000000       0.00000000       0.25311479 </v>
   </varray>
  </crystal>
  <varray name="positions" >
   <v>       0.00000000       0.00000000       0.00000000 </v>
   <v>       0.50000000       0.50000000       0.00000000 </v>
   <v>       0.50000000       0.00000000       0.50000000 </v>
   <v>       0.00000000       0.50000000       0.50000000 </v>
  </varray>
 </structure>
</modeling>
