<?xml version="1.0" encoding="ISO-8859-1"?>
<modeling>
 <generator>
  <i name="program" type="string">vasp </i>
  <i name="version" type="string">5.4.1  </i>
  <i name="subversion" type="string">24Jun15 (build Jul  8 2015 13:29:37) complex                          parallel </i>
  <i name="platform" type="string">FX10FRT </i>
  <i name="date" type="string">2016 02 29 </i>
  <i name="time" type="string">21:46:45 </i>
 </generator>
 <incar>
  <i type="string" name="PREC">accurate</i>
  <i type="string" name="ALGO"> Normal</i>
  <i type="int" name="ISPIN">     1</i>
  <i type="int" name="IBRION">    -1</i>
  <i name="EDIFF">      0.00010000</i>
  <i type="int" name="NSW">     0</i>
  <i type="int" name="ISIF">     2</i>
  <i name="ENCUT">    400.00000000</i>
  <i type="int" name="ISMEAR">     2</i>
  <i name="SIGMA">      0.01000000</i>
  <i type="int" name="NWRITE">     1</i>
  <v type="int" name="KPOINT_BSE">    -1     0     0     0</v>
 </incar>
 <kpoints>
  <generation param="Monkhorst-Pack">
   <v type="int" name="divisions">       8        8        8 </v>
   <v name="usershift">      0.00000000       0.00000000       0.00000000 </v>
   <v name="genvec1">      0.12500000       0.00000000       0.00000000 </v>
   <v name="genvec2">      0.00000000       0.12500000       0.00000000 </v>
   <v name="genvec3">      0.00000000       0.00000000       0.12500000 </v>
   <v name="shift">      0.50000000       0.50000000       0.50000000 </v>
  </generation>
  <varray name="kpointlist" >
   <v>       0.06250000       0.06250000       0.06250000 </v>
   <v>       0.18750000       0.06250000       0.06250000 </v>
   <v>       0.31250000       0.06250000       0.06250000 </v>
   <v>       0.43750000       0.06250000       0.06250000 </v>
   <v>      -0.43750000       0.06250000       0.06250000 </v>
   <v>      -0.31250000       0.06250000       0.06250000 </v>
   <v>      -0.18750000       0.06250000       0.06250000 </v>
   <v>      -0.06250000       0.06250000       0.06250000 </v>
   <v>       0.06250000       0.18750000       0.06250000 </v>
   <v>       0.18750000       0.18750000       0.06250000 </v>
   <v>       0.31250000       0.18750000       0.06250000 </v>
   <v>       0.43750000       0.18750000       0.06250000 </v>
   <v>      -0.43750000       0.18750000       0.06250000 </v>
   <v>      -0.31250000       0.18750000       0.06250000 </v>
   <v>      -0.18750000       0.18750000       0.06250000 </v>
   <v>      -0.06250000       0.18750000       0.06250000 </v>
   <v>       0.06250000       0.31250000       0.06250000 </v>
   <v>       0.18750000       0.31250000       0.06250000 </v>
   <v>       0.31250000       0.31250000       0.06250000 </v>
   <v>       0.43750000       0.31250000       0.06250000 </v>
   <v>      -0.43750000       0.31250000       0.06250000 </v>
   <v>      -0.31250000       0.31250000       0.06250000 </v>
   <v>      -0.18750000       0.31250000       0.06250000 </v>
   <v>      -0.06250000       0.31250000       0.06250000 </v>
   <v>       0.06250000       0.43750000       0.06250000 </v>
   <v>       0.18750000       0.43750000       0.06250000 </v>
   <v>       0.31250000       0.43750000       0.06250000 </v>
   <v>       0.43750000       0.43750000       0.06250000 </v>
   <v>      -0.43750000       0.43750000       0.06250000 </v>
   <v>      -0.31250000       0.43750000       0.06250000 </v>
   <v>      -0.18750000       0.43750000       0.06250000 </v>
   <v>      -0.06250000       0.43750000       0.06250000 </v>
   <v>       0.06250000      -0.43750000       0.06250000 </v>
   <v>       0.18750000      -0.43750000       0.06250000 </v>
   <v>       0.31250000      -0.43750000       0.06250000 </v>
   <v>       0.43750000      -0.43750000       0.06250000 </v>
   <v>      -0.43750000      -0.43750000       0.06250000 </v>
   <v>      -0.31250000      -0.43750000       0.06250000 </v>
   <v>      -0.18750000      -0.43750000       0.06250000 </v>
   <v>      -0.06250000      -0.43750000       0.06250000 </v>
   <v>       0.06250000      -0.31250000       0.06250000 </v>
   <v>       0.18750000      -0.31250000       0.06250000 </v>
   <v>       0.31250000      -0.31250000       0.06250000 </v>
   <v>       0.43750000      -0.31250000       0.06250000 </v>
   <v>      -0.43750000      -0.31250000       0.06250000 </v>
   <v>      -0.31250000      -0.31250000       0.06250000 </v>
   <v>      -0.18750000      -0.31250000       0.06250000 </v>
   <v>      -0.06250000      -0.31250000       0.06250000 </v>
   <v>       0.06250000      -0.18750000       0.06250000 </v>
   <v>       0.18750000      -0.18750000       0.06250000 </v>
   <v>       0.31250000      -0.18750000       0.06250000 </v>
   <v>       0.43750000      -0.18750000       0.06250000 </v>
   <v>      -0.43750000      -0.18750000       0.06250000 </v>
   <v>      -0.31250000      -0.18750000       0.06250000 </v>
   <v>      -0.18750000      -0.18750000       0.06250000 </v>
   <v>      -0.06250000      -0.18750000       0.06250000 </v>
   <v>       0.06250000      -0.06250000       0.06250000 </v>
   <v>       0.18750000      -0.06250000       0.06250000 </v>
   <v>       0.31250000      -0.06250000       0.06250000 </v>
   <v>       0.43750000      -0.06250000       0.06250000 </v>
   <v>      -0.43750000      -0.06250000       0.06250000 </v>
   <v>      -0.31250000      -0.06250000       0.06250000 </v>
   <v>      -0.18750000      -0.06250000       0.06250000 </v>
   <v>      -0.06250000      -0.06250000       0.06250000 </v>
   <v>       0.06250000       0.06250000       0.18750000 </v>
   <v>       0.18750000       0.06250000       0.18750000 </v>
   <v>       0.31250000       0.06250000       0.18750000 </v>
   <v>       0.43750000       0.06250000       0.18750000 </v>
   <v>      -0.43750000       0.06250000       0.18750000 </v>
   <v>      -0.31250000       0.06250000       0.18750000 </v>
   <v>      -0.18750000       0.06250000       0.18750000 </v>
   <v>      -0.06250000       0.06250000       0.18750000 </v>
   <v>       0.06250000       0.18750000       0.18750000 </v>
   <v>       0.18750000       0.18750000       0.18750000 </v>
   <v>       0.31250000       0.18750000       0.18750000 </v>
   <v>       0.43750000       0.18750000       0.18750000 </v>
   <v>      -0.43750000       0.18750000       0.18750000 </v>
   <v>      -0.31250000       0.18750000       0.18750000 </v>
   <v>      -0.18750000       0.18750000       0.18750000 </v>
   <v>      -0.06250000       0.18750000       0.18750000 </v>
   <v>       0.06250000       0.31250000       0.18750000 </v>
   <v>       0.18750000       0.31250000       0.18750000 </v>
   <v>       0.31250000       0.31250000       0.18750000 </v>
   <v>       0.43750000       0.31250000       0.18750000 </v>
   <v>      -0.43750000       0.31250000       0.18750000 </v>
   <v>      -0.31250000       0.31250000       0.18750000 </v>
   <v>      -0.18750000       0.31250000       0.18750000 </v>
   <v>      -0.06250000       0.31250000       0.18750000 </v>
   <v>       0.06250000       0.43750000       0.18750000 </v>
   <v>       0.18750000       0.43750000       0.18750000 </v>
   <v>       0.31250000       0.43750000       0.18750000 </v>
   <v>       0.43750000       0.43750000       0.18750000 </v>
   <v>      -0.43750000       0.43750000       0.18750000 </v>
   <v>      -0.31250000       0.43750000       0.18750000 </v>
   <v>      -0.18750000       0.43750000       0.18750000 </v>
   <v>      -0.06250000       0.43750000       0.18750000 </v>
   <v>       0.06250000      -0.43750000       0.18750000 </v>
   <v>       0.18750000      -0.43750000       0.18750000 </v>
   <v>       0.31250000      -0.43750000       0.18750000 </v>
   <v>       0.43750000      -0.43750000       0.18750000 </v>
   <v>      -0.43750000      -0.43750000       0.18750000 </v>
   <v>      -0.31250000      -0.43750000       0.18750000 </v>
   <v>      -0.18750000      -0.43750000       0.18750000 </v>
   <v>      -0.06250000      -0.43750000       0.18750000 </v>
   <v>       0.06250000      -0.31250000       0.18750000 </v>
   <v>       0.18750000      -0.31250000       0.18750000 </v>
   <v>       0.31250000      -0.31250000       0.18750000 </v>
   <v>       0.43750000      -0.31250000       0.18750000 </v>
   <v>      -0.43750000      -0.31250000       0.18750000 </v>
   <v>      -0.31250000      -0.31250000       0.18750000 </v>
   <v>      -0.18750000      -0.31250000       0.18750000 </v>
   <v>      -0.06250000      -0.31250000       0.18750000 </v>
   <v>       0.06250000      -0.18750000       0.18750000 </v>
   <v>       0.18750000      -0.18750000       0.18750000 </v>
   <v>       0.31250000      -0.18750000       0.18750000 </v>
   <v>       0.43750000      -0.18750000       0.18750000 </v>
   <v>      -0.43750000      -0.18750000       0.18750000 </v>
   <v>      -0.31250000      -0.18750000       0.18750000 </v>
   <v>      -0.18750000      -0.18750000       0.18750000 </v>
   <v>      -0.06250000      -0.18750000       0.18750000 </v>
   <v>       0.06250000      -0.06250000       0.18750000 </v>
   <v>       0.18750000      -0.06250000       0.18750000 </v>
   <v>       0.31250000      -0.06250000       0.18750000 </v>
   <v>       0.43750000      -0.06250000       0.18750000 </v>
   <v>      -0.43750000      -0.06250000       0.18750000 </v>
   <v>      -0.31250000      -0.06250000       0.18750000 </v>
   <v>      -0.18750000      -0.06250000       0.18750000 </v>
   <v>      -0.06250000      -0.06250000       0.18750000 </v>
   <v>       0.06250000       0.06250000       0.31250000 </v>
   <v>       0.18750000       0.06250000       0.31250000 </v>
   <v>       0.31250000       0.06250000       0.31250000 </v>
   <v>       0.43750000       0.06250000       0.31250000 </v>
   <v>      -0.43750000       0.06250000       0.31250000 </v>
   <v>      -0.31250000       0.06250000       0.31250000 </v>
   <v>      -0.18750000       0.06250000       0.31250000 </v>
   <v>      -0.06250000       0.06250000       0.31250000 </v>
   <v>       0.06250000       0.18750000       0.31250000 </v>
   <v>       0.18750000       0.18750000       0.31250000 </v>
   <v>       0.31250000       0.18750000       0.31250000 </v>
   <v>       0.43750000       0.18750000       0.31250000 </v>
   <v>      -0.43750000       0.18750000       0.31250000 </v>
   <v>      -0.31250000       0.18750000       0.31250000 </v>
   <v>      -0.18750000       0.18750000       0.31250000 </v>
   <v>      -0.06250000       0.18750000       0.31250000 </v>
   <v>       0.06250000       0.31250000       0.31250000 </v>
   <v>       0.18750000       0.31250000       0.31250000 </v>
   <v>       0.31250000       0.31250000       0.31250000 </v>
   <v>       0.43750000       0.31250000       0.31250000 </v>
   <v>      -0.43750000       0.31250000       0.31250000 </v>
   <v>      -0.31250000       0.31250000       0.31250000 </v>
   <v>      -0.18750000       0.31250000       0.31250000 </v>
   <v>      -0.06250000       0.31250000       0.31250000 </v>
   <v>       0.06250000       0.43750000       0.31250000 </v>
   <v>       0.18750000       0.43750000       0.31250000 </v>
   <v>       0.31250000       0.43750000       0.31250000 </v>
   <v>       0.43750000       0.43750000       0.31250000 </v>
   <v>      -0.43750000       0.43750000       0.31250000 </v>
   <v>      -0.31250000       0.43750000       0.31250000 </v>
   <v>      -0.18750000       0.43750000       0.31250000 </v>
   <v>      -0.06250000       0.43750000       0.31250000 </v>
   <v>       0.06250000      -0.43750000       0.31250000 </v>
   <v>       0.18750000      -0.43750000       0.31250000 </v>
   <v>       0.31250000      -0.43750000       0.31250000 </v>
   <v>       0.43750000      -0.43750000       0.31250000 </v>
   <v>      -0.43750000      -0.43750000       0.31250000 </v>
   <v>      -0.31250000      -0.43750000       0.31250000 </v>
   <v>      -0.18750000      -0.43750000       0.31250000 </v>
   <v>      -0.06250000      -0.43750000       0.31250000 </v>
   <v>       0.06250000      -0.31250000       0.31250000 </v>
   <v>       0.18750000      -0.31250000       0.31250000 </v>
   <v>       0.31250000      -0.31250000       0.31250000 </v>
   <v>       0.43750000      -0.31250000       0.31250000 </v>
   <v>      -0.43750000      -0.31250000       0.31250000 </v>
   <v>      -0.31250000      -0.31250000       0.31250000 </v>
   <v>      -0.18750000      -0.31250000       0.31250000 </v>
   <v>      -0.06250000      -0.31250000       0.31250000 </v>
   <v>       0.06250000      -0.18750000       0.31250000 </v>
   <v>       0.18750000      -0.18750000       0.31250000 </v>
   <v>       0.31250000      -0.18750000       0.31250000 </v>
   <v>       0.43750000      -0.18750000       0.31250000 </v>
   <v>      -0.43750000      -0.18750000       0.31250000 </v>
   <v>      -0.31250000      -0.18750000       0.31250000 </v>
   <v>      -0.18750000      -0.18750000       0.31250000 </v>
   <v>      -0.06250000      -0.18750000       0.31250000 </v>
   <v>       0.06250000      -0.06250000       0.31250000 </v>
   <v>       0.18750000      -0.06250000       0.31250000 </v>
   <v>       0.31250000      -0.06250000       0.31250000 </v>
   <v>       0.43750000      -0.06250000       0.31250000 </v>
   <v>      -0.43750000      -0.06250000       0.31250000 </v>
   <v>      -0.31250000      -0.06250000       0.31250000 </v>
   <v>      -0.18750000      -0.06250000       0.31250000 </v>
   <v>      -0.06250000      -0.06250000       0.31250000 </v>
   <v>       0.06250000       0.06250000       0.43750000 </v>
   <v>       0.18750000       0.06250000       0.43750000 </v>
   <v>       0.31250000       0.06250000       0.43750000 </v>
   <v>       0.43750000       0.06250000       0.43750000 </v>
   <v>      -0.43750000       0.06250000       0.43750000 </v>
   <v>      -0.31250000       0.06250000       0.43750000 </v>
   <v>      -0.18750000       0.06250000       0.43750000 </v>
   <v>      -0.06250000       0.06250000       0.43750000 </v>
   <v>       0.06250000       0.18750000       0.43750000 </v>
   <v>       0.18750000       0.18750000       0.43750000 </v>
   <v>       0.31250000       0.18750000       0.43750000 </v>
   <v>       0.43750000       0.18750000       0.43750000 </v>
   <v>      -0.43750000       0.18750000       0.43750000 </v>
   <v>      -0.31250000       0.18750000       0.43750000 </v>
   <v>      -0.18750000       0.18750000       0.43750000 </v>
   <v>      -0.06250000       0.18750000       0.43750000 </v>
   <v>       0.06250000       0.31250000       0.43750000 </v>
   <v>       0.18750000       0.31250000       0.43750000 </v>
   <v>       0.31250000       0.31250000       0.43750000 </v>
   <v>       0.43750000       0.31250000       0.43750000 </v>
   <v>      -0.43750000       0.31250000       0.43750000 </v>
   <v>      -0.31250000       0.31250000       0.43750000 </v>
   <v>      -0.18750000       0.31250000       0.43750000 </v>
   <v>      -0.06250000       0.31250000       0.43750000 </v>
   <v>       0.06250000       0.43750000       0.43750000 </v>
   <v>       0.18750000       0.43750000       0.43750000 </v>
   <v>       0.31250000       0.43750000       0.43750000 </v>
   <v>       0.43750000       0.43750000       0.43750000 </v>
   <v>      -0.43750000       0.43750000       0.43750000 </v>
   <v>      -0.31250000       0.43750000       0.43750000 </v>
   <v>      -0.18750000       0.43750000       0.43750000 </v>
   <v>      -0.06250000       0.43750000       0.43750000 </v>
   <v>       0.06250000      -0.43750000       0.43750000 </v>
   <v>       0.18750000      -0.43750000       0.43750000 </v>
   <v>       0.31250000      -0.43750000       0.43750000 </v>
   <v>       0.43750000      -0.43750000       0.43750000 </v>
   <v>      -0.43750000      -0.43750000       0.43750000 </v>
   <v>      -0.31250000      -0.43750000       0.43750000 </v>
   <v>      -0.18750000      -0.43750000       0.43750000 </v>
   <v>      -0.06250000      -0.43750000       0.43750000 </v>
   <v>       0.06250000      -0.31250000       0.43750000 </v>
   <v>       0.18750000      -0.31250000       0.43750000 </v>
   <v>       0.31250000      -0.31250000       0.43750000 </v>
   <v>       0.43750000      -0.31250000       0.43750000 </v>
   <v>      -0.43750000      -0.31250000       0.43750000 </v>
   <v>      -0.31250000      -0.31250000       0.43750000 </v>
   <v>      -0.18750000      -0.31250000       0.43750000 </v>
   <v>      -0.06250000      -0.31250000       0.43750000 </v>
   <v>       0.06250000      -0.18750000       0.43750000 </v>
   <v>       0.18750000      -0.18750000       0.43750000 </v>
   <v>       0.31250000      -0.18750000       0.43750000 </v>
   <v>       0.43750000      -0.18750000       0.43750000 </v>
   <v>      -0.43750000      -0.18750000       0.43750000 </v>
   <v>      -0.31250000      -0.18750000       0.43750000 </v>
   <v>      -0.18750000      -0.18750000       0.43750000 </v>
   <v>      -0.06250000      -0.18750000       0.43750000 </v>
   <v>       0.06250000      -0.06250000       0.43750000 </v>
   <v>       0.18750000      -0.06250000       0.43750000 </v>
   <v>       0.31250000      -0.06250000       0.43750000 </v>
   <v>       0.43750000      -0.06250000       0.43750000 </v>
   <v>      -0.43750000      -0.06250000       0.43750000 </v>
   <v>      -0.31250000      -0.06250000       0.43750000 </v>
   <v>      -0.18750000      -0.06250000       0.43750000 </v>
   <v>      -0.06250000      -0.06250000       0.43750000 </v>
  </varray>
  <varray name="weights" >
   <v>       0.00390625 </v>
   <v>       0.00390625 </v>
   <v>       0.00390625 </v>
   <v>       0.00390625 </v>
   <v>       0.00390625 </v>
   <v>       0.00390625 </v>
   <v>       0.00390625 </v>
   <v>       0.00390625 </v>
   <v>       0.00390625 </v>
   <v>       0.00390625 </v>
   <v>       0.00390625 </v>
   <v>       0.00390625 </v>
   <v>       0.00390625 </v>
   <v>       0.00390625 </v>
   <v>       0.00390625 </v>
   <v>       0.00390625 </v>
   <v>       0.00390625 </v>
   <v>       0.00390625 </v>
   <v>       0.00390625 </v>
   <v>       0.00390625 </v>
   <v>       0.00390625 </v>
   <v>       0.00390625 </v>
   <v>       0.00390625 </v>
   <v>       0.00390625 </v>
   <v>       0.00390625 </v>
   <v>       0.00390625 </v>
   <v>       0.00390625 </v>
   <v>       0.00390625 </v>
   <v>       0.00390625 </v>
   <v>       0.00390625 </v>
   <v>       0.00390625 </v>
   <v>       0.00390625 </v>
   <v>       0.00390625 </v>
   <v>       0.00390625 </v>
   <v>       0.00390625 </v>
   <v>       0.00390625 </v>
   <v>       0.00390625 </v>
   <v>       0.00390625 </v>
   <v>       0.00390625 </v>
   <v>       0.00390625 </v>
   <v>       0.00390625 </v>
   <v>       0.00390625 </v>
   <v>       0.00390625 </v>
   <v>       0.00390625 </v>
   <v>       0.00390625 </v>
   <v>       0.00390625 </v>
   <v>       0.00390625 </v>
   <v>       0.00390625 </v>
   <v>       0.00390625 </v>
   <v>       0.00390625 </v>
   <v>       0.00390625 </v>
   <v>       0.00390625 </v>
   <v>       0.00390625 </v>
   <v>       0.00390625 </v>
   <v>       0.00390625 </v>
   <v>       0.00390625 </v>
   <v>       0.00390625 </v>
   <v>       0.00390625 </v>
   <v>       0.00390625 </v>
   <v>       0.00390625 </v>
   <v>       0.00390625 </v>
   <v>       0.00390625 </v>
   <v>       0.00390625 </v>
   <v>       0.00390625 </v>
   <v>       0.00390625 </v>
   <v>       0.00390625 </v>
   <v>       0.00390625 </v>
   <v>       0.00390625 </v>
   <v>       0.00390625 </v>
   <v>       0.00390625 </v>
   <v>       0.00390625 </v>
   <v>       0.00390625 </v>
   <v>       0.00390625 </v>
   <v>       0.00390625 </v>
   <v>       0.00390625 </v>
   <v>       0.00390625 </v>
   <v>       0.00390625 </v>
   <v>       0.00390625 </v>
   <v>       0.00390625 </v>
   <v>       0.00390625 </v>
   <v>       0.00390625 </v>
   <v>       0.00390625 </v>
   <v>       0.00390625 </v>
   <v>       0.00390625 </v>
   <v>       0.00390625 </v>
   <v>       0.00390625 </v>
   <v>       0.00390625 </v>
   <v>       0.00390625 </v>
   <v>       0.00390625 </v>
   <v>       0.00390625 </v>
   <v>       0.00390625 </v>
   <v>       0.00390625 </v>
   <v>       0.00390625 </v>
   <v>       0.00390625 </v>
   <v>       0.00390625 </v>
   <v>       0.00390625 </v>
   <v>       0.00390625 </v>
   <v>       0.00390625 </v>
   <v>       0.00390625 </v>
   <v>       0.00390625 </v>
   <v>       0.00390625 </v>
   <v>       0.00390625 </v>
   <v>       0.00390625 </v>
   <v>       0.00390625 </v>
   <v>       0.00390625 </v>
   <v>       0.00390625 </v>
   <v>       0.00390625 </v>
   <v>       0.00390625 </v>
   <v>       0.00390625 </v>
   <v>       0.00390625 </v>
   <v>       0.00390625 </v>
   <v>       0.00390625 </v>
   <v>       0.00390625 </v>
   <v>       0.00390625 </v>
   <v>       0.00390625 </v>
   <v>       0.00390625 </v>
   <v>       0.00390625 </v>
   <v>       0.00390625 </v>
   <v>       0.00390625 </v>
   <v>       0.00390625 </v>
   <v>       0.00390625 </v>
   <v>       0.00390625 </v>
   <v>       0.00390625 </v>
   <v>       0.00390625 </v>
   <v>       0.00390625 </v>
   <v>       0.00390625 </v>
   <v>       0.00390625 </v>
   <v>       0.00390625 </v>
   <v>       0.00390625 </v>
   <v>       0.00390625 </v>
   <v>       0.00390625 </v>
   <v>       0.00390625 </v>
   <v>       0.00390625 </v>
   <v>       0.00390625 </v>
   <v>       0.00390625 </v>
   <v>       0.00390625 </v>
   <v>       0.00390625 </v>
   <v>       0.00390625 </v>
   <v>       0.00390625 </v>
   <v>       0.00390625 </v>
   <v>       0.00390625 </v>
   <v>       0.00390625 </v>
   <v>       0.00390625 </v>
   <v>       0.00390625 </v>
   <v>       0.00390625 </v>
   <v>       0.00390625 </v>
   <v>       0.00390625 </v>
   <v>       0.00390625 </v>
   <v>       0.00390625 </v>
   <v>       0.00390625 </v>
   <v>       0.00390625 </v>
   <v>       0.00390625 </v>
   <v>       0.00390625 </v>
   <v>       0.00390625 </v>
   <v>       0.00390625 </v>
   <v>       0.00390625 </v>
   <v>       0.00390625 </v>
   <v>       0.00390625 </v>
   <v>       0.00390625 </v>
   <v>       0.00390625 </v>
   <v>       0.00390625 </v>
   <v>       0.00390625 </v>
   <v>       0.00390625 </v>
   <v>       0.00390625 </v>
   <v>       0.00390625 </v>
   <v>       0.00390625 </v>
   <v>       0.00390625 </v>
   <v>       0.00390625 </v>
   <v>       0.00390625 </v>
   <v>       0.00390625 </v>
   <v>       0.00390625 </v>
   <v>       0.00390625 </v>
   <v>       0.00390625 </v>
   <v>       0.00390625 </v>
   <v>       0.00390625 </v>
   <v>       0.00390625 </v>
   <v>       0.00390625 </v>
   <v>       0.00390625 </v>
   <v>       0.00390625 </v>
   <v>       0.00390625 </v>
   <v>       0.00390625 </v>
   <v>       0.00390625 </v>
   <v>       0.00390625 </v>
   <v>       0.00390625 </v>
   <v>       0.00390625 </v>
   <v>       0.00390625 </v>
   <v>       0.00390625 </v>
   <v>       0.00390625 </v>
   <v>       0.00390625 </v>
   <v>       0.00390625 </v>
   <v>       0.00390625 </v>
   <v>       0.00390625 </v>
   <v>       0.00390625 </v>
   <v>       0.00390625 </v>
   <v>       0.00390625 </v>
   <v>       0.00390625 </v>
   <v>       0.00390625 </v>
   <v>       0.00390625 </v>
   <v>       0.00390625 </v>
   <v>       0.00390625 </v>
   <v>       0.00390625 </v>
   <v>       0.00390625 </v>
   <v>       0.00390625 </v>
   <v>       0.00390625 </v>
   <v>       0.00390625 </v>
   <v>       0.00390625 </v>
   <v>       0.00390625 </v>
   <v>       0.00390625 </v>
   <v>       0.00390625 </v>
   <v>       0.00390625 </v>
   <v>       0.00390625 </v>
   <v>       0.00390625 </v>
   <v>       0.00390625 </v>
   <v>       0.00390625 </v>
   <v>       0.00390625 </v>
   <v>       0.00390625 </v>
   <v>       0.00390625 </v>
   <v>       0.00390625 </v>
   <v>       0.00390625 </v>
   <v>       0.00390625 </v>
   <v>       0.00390625 </v>
   <v>       0.00390625 </v>
   <v>       0.00390625 </v>
   <v>       0.00390625 </v>
   <v>       0.00390625 </v>
   <v>       0.00390625 </v>
   <v>       0.00390625 </v>
   <v>       0.00390625 </v>
   <v>       0.00390625 </v>
   <v>       0.00390625 </v>
   <v>       0.00390625 </v>
   <v>       0.00390625 </v>
   <v>       0.00390625 </v>
   <v>       0.00390625 </v>
   <v>       0.00390625 </v>
   <v>       0.00390625 </v>
   <v>       0.00390625 </v>
   <v>       0.00390625 </v>
   <v>       0.00390625 </v>
   <v>       0.00390625 </v>
   <v>       0.00390625 </v>
   <v>       0.00390625 </v>
   <v>       0.00390625 </v>
   <v>       0.00390625 </v>
   <v>       0.00390625 </v>
   <v>       0.00390625 </v>
   <v>       0.00390625 </v>
   <v>       0.00390625 </v>
   <v>       0.00390625 </v>
   <v>       0.00390625 </v>
   <v>       0.00390625 </v>
   <v>       0.00390625 </v>
   <v>       0.00390625 </v>
   <v>       0.00390625 </v>
   <v>       0.00390625 </v>
   <v>       0.00390625 </v>
  </varray>
 </kpoints>
 <parameters>
  <separator name="general" >
   <i type="string" name="SYSTEM">unknown system</i>
   <i type="logical" name="LCOMPAT"> F  </i>
  </separator>
  <separator name="electronic" >
   <i type="string" name="PREC">accura</i>
   <i name="ENMAX">    400.00000000</i>
   <i name="ENAUG">    322.06900000</i>
   <i name="EDIFF">      0.00010000</i>
   <i type="int" name="IALGO">    38</i>
   <i type="int" name="IWAVPR">    10</i>
   <i type="int" name="NBANDS">    24</i>
   <i name="NELECT">     32.00000000</i>
   <i type="int" name="TURBO">     0</i>
   <i type="int" name="IRESTART">     0</i>
   <i type="int" name="NREBOOT">     0</i>
   <i type="int" name="NMIN">     0</i>
   <i name="EREF">      0.00000000</i>
   <separator name="electronic smearing" >
    <i type="int" name="ISMEAR">     2</i>
    <i name="SIGMA">      0.01000000</i>
    <i name="KSPACING">      0.50000000</i>
    <i type="logical" name="KGAMMA"> T  </i>
   </separator>
   <separator name="electronic projectors" >
    <i type="logical" name="LREAL"> F  </i>
    <v name="ROPT">      0.00000000</v>
    <i type="int" name="LMAXPAW">  -100</i>
    <i type="int" name="LMAXMIX">     2</i>
    <i type="logical" name="NLSPLINE"> F  </i>
   </separator>
   <separator name="electronic startup" >
    <i type="int" name="ISTART">     0</i>
    <i type="int" name="ICHARG">     2</i>
    <i type="int" name="INIWAV">     1</i>
   </separator>
   <separator name="electronic spin" >
    <i type="int" name="ISPIN">     1</i>
    <i type="logical" name="LNONCOLLINEAR"> F  </i>
    <v name="MAGMOM">      1.00000000      1.00000000      1.00000000      1.00000000      1.00000000      1.00000000      1.00000000      1.00000000</v>
    <i name="NUPDOWN">     -1.00000000</i>
    <i type="logical" name="LSORBIT"> F  </i>
    <v name="SAXIS">      0.00000000      0.00000000      1.00000000</v>
    <i type="logical" name="LSPIRAL"> F  </i>
    <v name="QSPIRAL">      0.00000000      0.00000000      0.00000000</v>
    <i type="logical" name="LZEROZ"> F  </i>
   </separator>
   <separator name="electronic exchange-correlation" >
    <i type="logical" name="LASPH"> F  </i>
    <i type="logical" name="LMETAGGA"> F  </i>
   </separator>
   <separator name="electronic convergence" >
    <i type="int" name="NELM">    60</i>
    <i type="int" name="NELMDL">    -5</i>
    <i type="int" name="NELMIN">     2</i>
    <i name="ENINI">    400.00000000</i>
    <separator name="electronic convergence detail" >
     <i type="logical" name="LDIAG"> T  </i>
     <i type="logical" name="LSUBROT"> F  </i>
     <i name="WEIMIN">      0.00000000</i>
     <i name="EBREAK">      0.00000104</i>
     <i name="DEPER">      0.30000000</i>
     <i type="int" name="NRMM">     4</i>
     <i name="TIME">      0.40000000</i>
    </separator>
   </separator>
   <separator name="electronic mixer" >
    <i name="AMIX">      0.40000000</i>
    <i name="BMIX">      1.00000000</i>
    <i name="AMIN">      0.10000000</i>
    <i name="AMIX_MAG">      1.60000000</i>
    <i name="BMIX_MAG">      1.00000000</i>
    <separator name="electronic mixer details" >
     <i type="int" name="IMIX">     4</i>
     <i type="logical" name="MIXFIRST"> F  </i>
     <i type="int" name="MAXMIX">   -45</i>
     <i name="WC">    100.00000000</i>
     <i type="int" name="INIMIX">     1</i>
     <i type="int" name="MIXPRE">     1</i>
     <i type="int" name="MREMOVE">     5</i>
    </separator>
   </separator>
   <separator name="electronic dipolcorrection" >
    <i type="logical" name="LDIPOL"> F  </i>
    <i type="logical" name="LMONO"> F  </i>
    <i type="int" name="IDIPOL">     0</i>
    <i name="EPSILON">      1.00000000</i>
    <v name="DIPOL">   -100.00000000   -100.00000000   -100.00000000</v>
    <i name="EFIELD">      0.00000000</i>
   </separator>
  </separator>
  <separator name="grids" >
   <i type="int" name="NGX">    36</i>
   <i type="int" name="NGY">    36</i>
   <i type="int" name="NGZ">    36</i>
   <i type="int" name="NGXF">    72</i>
   <i type="int" name="NGYF">    72</i>
   <i type="int" name="NGZF">    72</i>
   <i type="logical" name="ADDGRID"> F  </i>
  </separator>
  <separator name="ionic" >
   <i type="int" name="NSW">     0</i>
   <i type="int" name="IBRION">    -1</i>
   <i type="int" name="ISIF">     2</i>
   <i name="PSTRESS">      0.00000000</i>
   <i name="EDIFFG">      0.00100000</i>
   <i type="int" name="NFREE">     0</i>
   <i name="POTIM">      0.50000000</i>
   <i name="SMASS">     -3.00000000</i>
   <i name="SCALEE">      1.00000000</i>
  </separator>
  <separator name="ionic md" >
   <i name="TEBEG">      0.00010000</i>
   <i name="TEEND">      0.00010000</i>
   <i type="int" name="NBLOCK">     1</i>
   <i type="int" name="KBLOCK">     1</i>
   <i type="int" name="NPACO">   256</i>
   <i name="APACO">     16.00000000</i>
  </separator>
  <separator name="symmetry" >
   <i type="int" name="ISYM">     2</i>
   <i name="SYMPREC">      0.00001000</i>
  </separator>
  <separator name="dos" >
   <i type="logical" name="LORBIT"> F  </i>
   <v name="RWIGS">     -1.00000000</v>
   <i type="int" name="NEDOS">   301</i>
   <i name="EMIN">     10.00000000</i>
   <i name="EMAX">    -10.00000000</i>
   <i name="EFERMI">      0.00000000</i>
  </separator>
  <separator name="writing" >
   <i type="int" name="NWRITE">     1</i>
   <i type="logical" name="LWAVE"> T  </i>
   <i type="logical" name="LCHARG"> T  </i>
   <i type="logical" name="LPARD"> F  </i>
   <i type="logical" name="LVTOT"> F  </i>
   <i type="logical" name="LVHAR"> F  </i>
   <i type="logical" name="LELF"> F  </i>
   <i type="logical" name="LOPTICS"> F  </i>
   <v name="STM">      0.00000000      0.00000000      0.00000000      0.00000000      0.00000000      0.00000000      0.00000000</v>
  </separator>
  <separator name="performance" >
   <i type="int" name="NPAR">     8</i>
   <i type="int" name="NSIM">     4</i>
   <i type="int" name="NBLK">    -1</i>
   <i type="logical" name="LPLANE"> T  </i>
   <i type="logical" name="LSCALAPACK"> T  </i>
   <i type="logical" name="LSCAAWARE"> F  </i>
   <i type="logical" name="LSCALU"> F  </i>
   <i type="logical" name="LASYNC"> F  </i>
   <i type="logical" name="LORBITALREAL"> F  </i>
  </separator>
  <separator name="miscellaneous" >
   <i type="int" name="IDIOT">     3</i>
   <i type="logical" name="LMUSIC"> F  </i>
   <v name="POMASS">     28.08500000</v>
   <v name="DARWINR">      0.00000000</v>
   <v name="DARWINV">      1.00000000</v>
   <i type="logical" name="LCORR"> T  </i>
  </separator>
  <i type="logical" name="GGA_COMPAT"> T  </i>
  <i type="logical" name="LBERRY"> F  </i>
  <i type="int" name="ICORELEVEL">     0</i>
  <i type="logical" name="LDAU"> F  </i>
  <i type="int" name="I_CONSTRAINED_M">     0</i>
  <separator name="electronic exchange-correlation" >
   <i type="string" name="GGA">--</i>
   <i type="int" name="VOSKOWN">     0</i>
   <i type="logical" name="LHFCALC"> F  </i>
   <i type="string" name="PRECFOCK"></i>
   <i type="logical" name="LSYMGRAD"> F  </i>
   <i type="logical" name="LHFONE"> F  </i>
   <i type="logical" name="LRHFCALC"> F  </i>
   <i type="logical" name="LTHOMAS"> F  </i>
   <i type="logical" name="LMODELHF"> F  </i>
   <i name="ENCUT4O">     -1.00000000</i>
   <i type="int" name="EXXOEP">     0</i>
   <i type="int" name="FOURORBIT">     0</i>
   <i name="AEXX">      0.00000000</i>
   <i name="HFALPHA">      0.00000000</i>
   <i name="MCALPHA">      0.00000000</i>
   <i name="ALDAX">      1.00000000</i>
   <i name="AGGAX">      1.00000000</i>
   <i name="ALDAC">      1.00000000</i>
   <i name="AGGAC">      1.00000000</i>
   <i type="int" name="NKREDX">     1</i>
   <i type="int" name="NKREDY">     1</i>
   <i type="int" name="NKREDZ">     1</i>
   <i type="logical" name="SHIFTRED"> F  </i>
   <i type="logical" name="ODDONLY"> F  </i>
   <i type="logical" name="EVENONLY"> F  </i>
   <i type="int" name="LMAXFOCK">     0</i>
   <i type="int" name="NMAXFOCKAE">     0</i>
   <i type="logical" name="LFOCKAEDFT"> F  </i>
   <i name="HFSCREEN">      0.00000000</i>
   <i name="HFSCREENC">      0.00000000</i>
   <i type="int" name="NBANDSGWLOW">     0</i>
  </separator>
  <separator name="vdW DFT" >
   <i type="logical" name="LUSE_VDW"> F  </i>
   <i name="Zab_VDW">     -0.84910000</i>
   <i name="PARAM1">      0.12340000</i>
   <i name="PARAM2">      1.00000000</i>
   <i name="PARAM3">      0.00000000</i>
  </separator>
  <separator name="model GW" >
   <i type="int" name="MODEL_GW">     0</i>
   <i name="MODEL_EPS0">     12.26874997</i>
   <i name="MODEL_ALPHA">      1.00000000</i>
  </separator>
  <separator name="linear response parameters" >
   <i type="logical" name="LEPSILON"> F  </i>
   <i type="logical" name="LRPA"> F  </i>
   <i type="logical" name="LNABLA"> F  </i>
   <i type="logical" name="LVEL"> F  </i>
   <i type="int" name="KINTER">     0</i>
   <i name="CSHIFT">      0.10000000</i>
   <i name="OMEGAMAX">     -1.00000000</i>
   <i name="DEG_THRESHOLD">      0.00200000</i>
  </separator>
  <separator name="orbital magnetization" >
   <i type="logical" name="NUCIND"> F  </i>
   <v name="MAGPOS">      0.00000000      0.00000000      0.00000000</v>
   <i type="logical" name="LNICSALL"> T  </i>
   <i type="logical" name="ORBITALMAG"> F  </i>
   <i type="logical" name="LMAGBLOCH"> F  </i>
   <i type="logical" name="LCHIMAG"> F  </i>
   <i type="logical" name="LGAUGE"> T  </i>
   <i type="int" name="MAGATOM">     0</i>
   <v name="MAGDIPOL">      0.00000000      0.00000000      0.00000000</v>
   <v name="AVECCONST">      0.00000000      0.00000000      0.00000000</v>
  </separator>
  <separator name="response functions" >
   <i type="logical" name="LADDER"> F  </i>
   <i type="logical" name="LFXC"> F  </i>
   <i type="logical" name="LHARTREE"> T  </i>
   <i type="int" name="IBSE">     0</i>
   <v type="int" name="KPOINT">    -1     0     0     0</v>
   <i type="logical" name="LTCTE"> F  </i>
   <i type="logical" name="LTETE"> F  </i>
   <i type="logical" name="LTRIPLET"> F  </i>
   <i type="logical" name="LFXCEPS"> F  </i>
   <i type="logical" name="LFXHEG"> F  </i>
   <i type="int" name="NATURALO">     0</i>
   <i type="logical" name="L2ORDER"> F  </i>
   <i type="logical" name="LUSEW"> F  </i>
   <i name="ENCUTGW">     -2.00000000</i>
   <i name="ENCUTGWSOFT">     -2.00000000</i>
   <i name="ENCUTLF">     -1.00000000</i>
   <i type="int" name="LMAXMP2">    -1</i>
   <i name="SCISSOR">      0.00000000</i>
   <i type="int" name="NOMEGA">     0</i>
   <i type="int" name="NOMEGAR">     0</i>
   <i type="int" name="NBANDSGW">    -1</i>
   <i type="int" name="NBANDSO">    -1</i>
   <i type="int" name="NBANDSV">    -1</i>
   <i type="int" name="NELM">     1</i>
   <i type="int" name="NELMHF">     1</i>
   <i type="int" name="DIM">     3</i>
   <i type="int" name="ANTIRES">     0</i>
   <i name="OMEGAMAX">    -30.00000000</i>
   <i name="OMEGAMIN">    -30.00000000</i>
   <i name="OMEGATL">   -200.00000000</i>
   <i type="int" name="OMEGAGRID">     0</i>
   <i name="CSHIFT">     -0.10000000</i>
   <i type="logical" name="SELFENERGY"> F  </i>
   <i type="logical" name="LSPECTRAL"> F  </i>
   <i type="logical" name="LSPECTRALGW"> F  </i>
   <i type="logical" name="LSINGLES"> F  </i>
   <i type="logical" name="LFERMIGW"> F  </i>
   <i type="logical" name="ODDONLYGW"> F  </i>
   <i type="logical" name="EVENONLYGW"> F  </i>
   <i type="int" name="NKREDLFX">     1</i>
   <i type="int" name="NKREDLFY">     1</i>
   <i type="int" name="NKREDLFZ">     1</i>
   <i type="int" name="MAXMEM">  1800</i>
   <i type="int" name="TELESCOPE">     0</i>
   <i type="int" name="TAUPAR">     1</i>
   <i type="int" name="OMEGAPAR">    -1</i>
   <i name="LAMBDA">      1.00000000</i>
  </separator>
  <separator name="External order field" >
   <i name="OFIELD_KAPPA">      0.00000000</i>
   <v name="OFIELD_K">      0.00000000      0.00000000      0.00000000</v>
   <i name="OFIELD_Q6_NEAR">      0.00000000</i>
   <i name="OFIELD_Q6_FAR">      0.00000000</i>
   <i name="OFIELD_A">      0.00000000</i>
  </separator>
 </parameters>
 <atominfo>
  <atoms>       8 </atoms>
  <types>       1 </types>
  <array name="atoms" >
   <dimension dim="1">ion</dimension>
   <field type="string">element</field>
   <field type="int">atomtype</field>
   <set>
    <rc><c>Si</c><c>   1</c></rc>
    <rc><c>Si</c><c>   1</c></rc>
    <rc><c>Si</c><c>   1</c></rc>
    <rc><c>Si</c><c>   1</c></rc>
    <rc><c>Si</c><c>   1</c></rc>
    <rc><c>Si</c><c>   1</c></rc>
    <rc><c>Si</c><c>   1</c></rc>
    <rc><c>Si</c><c>   1</c></rc>
   </set>
  </array>
  <array name="atomtypes" >
   <dimension dim="1">type</dimension>
   <field type="int">atomspertype</field>
   <field type="string">element</field>
   <field>mass</field>
   <field>valence</field>
   <field type="string">pseudopotential</field>
   <set>
    <rc><c>   8</c><c>Si</c><c>     28.08500000</c><c>      4.00000000</c><c>  PAW_PBE Si 05Jan2001                  </c></rc>
   </set>
  </array>
 </atominfo>
 <structure name="initialpos" >
  <crystal>
   <varray name="basis" >
    <v>       5.46906415       0.00000000       0.00000000 </v>
    <v>       0.00000000       5.46906415       0.00000000 </v>
    <v>       0.00000000       0.00000000       5.46906415 </v>
   </varray>
   <i name="volume">    163.58333295 </i>
   <varray name="rec_basis" >
    <v>       0.18284664       0.00000000       0.00000000 </v>
    <v>       0.00000000       0.18284664       0.00000000 </v>
    <v>       0.00000000       0.00000000       0.18284664 </v>
   </varray>
  </crystal>
  <varray name="positions" >
   <v>       0.12831556       0.00266847       0.07617865 </v>
   <v>       0.38702536       0.24531076       0.31732503 </v>
   <v>       0.64810436       0.50900504       0.09504041 </v>
   <v>       0.88728293       0.75704784       0.35693897 </v>
   <v>       0.65168852       0.00997967       0.58561844 </v>
   <v>       0.90169955       0.26802287       0.85561314 </v>
   <v>       0.16408759       0.49446484       0.58759684 </v>
   <v>       0.39166488       0.74976735       0.83947666 </v>
  </varray>
 </structure>
 <calculation>
  <scstep>
   <time name="dav">    6.18    6.23</time>
   <time name="total">    6.23    6.31</time>
   <energy>
    <i name="alphaZ">     13.17029267 </i>
    <i name="ewald">   -907.46852721 </i>
    <i name="hartreedc">    -45.40945574 </i>
    <i name="XCdc">    -74.74996399 </i>
    <i name="pawpsdc">    704.99039692 </i>
    <i name="pawaedc">   -564.24414232 </i>
    <i name="eentropy">      0.00001181 </i>
    <i name="bandstr">    103.41475832 </i>
    <i name="atom">    824.52596983 </i>
    <i name="e_fr_energy">     54.22934029 </i>
    <i name="e_wo_entrp">     54.22932848 </i>
    <i name="e_0_energy">     54.22933734 </i>
   </energy>
  </scstep>
  <scstep>
   <time name="dav">    7.55    7.55</time>
   <time name="total">    7.55    7.58</time>
   <energy>
    <i name="e_fr_energy">    -39.56441732 </i>
    <i name="e_wo_entrp">    -39.56441732 </i>
    <i name="e_0_energy">    -39.56441732 </i>
   </energy>
  </scstep>
  <scstep>
   <time name="dav">    7.53    7.54</time>
   <time name="total">    7.55    7.56</time>
   <energy>
    <i name="e_fr_energy">    -43.70712648 </i>
    <i name="e_wo_entrp">    -43.70712648 </i>
    <i name="e_0_energy">    -43.70712648 </i>
   </energy>
  </scstep>
  <scstep>
   <time name="dav">    7.31    7.31</time>
   <time name="total">    7.31    7.33</time>
   <energy>
    <i name="e_fr_energy">    -43.77774132 </i>
    <i name="e_wo_entrp">    -43.77774132 </i>
    <i name="e_0_energy">    -43.77774132 </i>
   </energy>
  </scstep>
  <scstep>
   <time name="dav">    7.59    7.59</time>
   <time name="total">    7.80    7.82</time>
   <energy>
    <i name="e_fr_energy">    -43.77946305 </i>
    <i name="e_wo_entrp">    -43.77946305 </i>
    <i name="e_0_energy">    -43.77946305 </i>
   </energy>
  </scstep>
  <scstep>
   <time name="dav">    7.14    7.13</time>
   <time name="total">    7.38    7.38</time>
   <energy>
    <i name="e_fr_energy">    -43.30050862 </i>
    <i name="e_wo_entrp">    -43.30051386 </i>
    <i name="e_0_energy">    -43.30050993 </i>
   </energy>
  </scstep>
  <scstep>
   <time name="dav">    6.99    6.99</time>
   <time name="total">    7.23    7.24</time>
   <energy>
    <i name="e_fr_energy">    -43.08607804 </i>
    <i name="e_wo_entrp">    -43.08607804 </i>
    <i name="e_0_energy">    -43.08607804 </i>
   </energy>
  </scstep>
  <scstep>
   <time name="dav">    7.31    7.31</time>
   <time name="total">    7.54    7.56</time>
   <energy>
    <i name="e_fr_energy">    -43.08978965 </i>
    <i name="e_wo_entrp">    -43.08978965 </i>
    <i name="e_0_energy">    -43.08978965 </i>
   </energy>
  </scstep>
  <scstep>
   <time name="dav">    7.47    7.48</time>
   <time name="total">    7.70    7.72</time>
   <energy>
    <i name="e_fr_energy">    -43.09077891 </i>
    <i name="e_wo_entrp">    -43.09077891 </i>
    <i name="e_0_energy">    -43.09077891 </i>
   </energy>
  </scstep>
  <scstep>
   <time name="dav">    7.19    7.19</time>
   <time name="total">    7.43    7.44</time>
   <energy>
    <i name="e_fr_energy">    -43.09095048 </i>
    <i name="e_wo_entrp">    -43.09095048 </i>
    <i name="e_0_energy">    -43.09095048 </i>
   </energy>
  </scstep>
  <scstep>
   <time name="dav">    5.92    5.91</time>
   <time name="total">    5.96    5.96</time>
   <energy>
    <i name="alphaZ">     13.17029267 </i>
    <i name="ewald">   -907.46852721 </i>
    <i name="hartreedc">    -60.63097879 </i>
    <i name="XCdc">    -72.27300341 </i>
    <i name="pawpsdc">   3308.99005213 </i>
    <i name="pawaedc">  -3169.06556348 </i>
    <i name="eentropy">      0.00000000 </i>
    <i name="bandstr">     19.66075123 </i>
    <i name="atom">    824.52596983 </i>
    <i name="e_fr_energy">    -43.09100703 </i>
    <i name="e_wo_entrp">    -43.09100703 </i>
    <i name="e_0_energy">    -43.09100703 </i>
   </energy>
  </scstep>
  <structure>
   <crystal>
    <varray name="basis" >
     <v>       5.46906415       0.00000000       0.00000000 </v>
     <v>       0.00000000       5.46906415       0.00000000 </v>
     <v>       0.00000000       0.00000000       5.46906415 </v>
    </varray>
    <i name="volume">    163.58333295 </i>
    <varray name="rec_basis" >
     <v>       0.18284664       0.00000000       0.00000000 </v>
     <v>       0.00000000       0.18284664       0.00000000 </v>
     <v>       0.00000000       0.00000000       0.18284664 </v>
    </varray>
   </crystal>
   <varray name="positions" >
    <v>       0.12831556       0.00266847       0.07617865 </v>
    <v>       0.38702536       0.24531076       0.31732503 </v>
    <v>       0.64810436       0.50900504       0.09504041 </v>
    <v>       0.88728293       0.75704784       0.35693897 </v>
    <v>       0.65168852       0.00997967       0.58561844 </v>
    <v>       0.90169955       0.26802287       0.85561314 </v>
    <v>       0.16408759       0.49446484       0.58759684 </v>
    <v>       0.39166488       0.74976735       0.83947666 </v>
   </varray>
  </structure>
  <varray name="forces" >
   <v>       0.43274498      -0.98956629       0.87982119 </v>
   <v>       0.63383710      -0.13438617       0.56809136 </v>
   <v>      -0.44543827       0.28135320       0.19495807 </v>
   <v>       1.07028376      -0.57648069      -0.65230236 </v>
   <v>      -0.91985307       0.64993550       0.92630678 </v>
   <v>      -0.52867535      -0.01587664      -1.57911794 </v>
   <v>      -0.88906816       0.21883872      -0.12959924 </v>
   <v>       0.64616900       0.56618237      -0.20815787 </v>
  </varray>
  <varray name="stress" >
   <v>       0.63624314     -13.43530091      -1.49806473 </v>
   <v>     -13.43530110       5.11141426      10.95092984 </v>
   <v>      -1.49806476      10.95092989      -0.02972302 </v>
  </varray>
  <energy>
   <i name="e_fr_energy">    -43.09100703 </i>
   <i name="e_wo_entrp">    -43.09100703 </i>
   <i name="e_0_energy">      0.00000000 </i>
  </energy>
  <time name="totalsc">   84.93   85.28</time>
  <eigenvalues>
   <array>
    <dimension dim="1">band</dimension>
    <dimension dim="2">kpoint</dimension>
    <dimension dim="3">spin</dimension>
    <field>eigene</field>
    <field>occ</field>
    <set>
     <set comment="spin 1">
      <set comment="kpoint 1">
       <r>   -6.1643    1.0000 </r>
       <r>   -2.7667    1.0000 </r>
       <r>   -2.6044    1.0000 </r>
       <r>   -2.4737    1.0000 </r>
       <r>   -1.8069    1.0000 </r>
       <r>   -1.5923    1.0000 </r>
       <r>   -1.4470    1.0000 </r>
       <r>    2.5371    1.0000 </r>
       <r>    2.6085    1.0000 </r>
       <r>    2.7259    1.0000 </r>
       <r>    2.7773    1.0000 </r>
       <r>    2.8855    1.0000 </r>
       <r>    2.9517    1.0000 </r>
       <r>    5.0356    1.0000 </r>
       <r>    5.3886    1.0000 </r>
       <r>    5.7158    1.0000 </r>
       <r>    6.2530    0.0000 </r>
       <r>    6.3190    0.0000 </r>
       <r>    6.4293    0.0000 </r>
       <r>    6.6835    0.0000 </r>
       <r>    6.7912    0.0000 </r>
       <r>    6.8318    0.0000 </r>
       <r>    8.1551    0.0000 </r>
       <r>    8.2380    0.0000 </r>
      </set>
      <set comment="kpoint 2">
       <r>   -6.0315    1.0000 </r>
       <r>   -3.4624    1.0000 </r>
       <r>   -2.6153    1.0000 </r>
       <r>   -2.5011    1.0000 </r>
       <r>   -1.6695    1.0000 </r>
       <r>   -1.5452    1.0000 </r>
       <r>   -0.6269    1.0000 </r>
       <r>    2.1759    1.0000 </r>
       <r>    2.2720    1.0000 </r>
       <r>    2.6621    1.0000 </r>
       <r>    2.7182    1.0000 </r>
       <r>    2.7942    1.0000 </r>
       <r>    3.0581    1.0000 </r>
       <r>    4.3939    1.0000 </r>
       <r>    5.0534    1.0000 </r>
       <r>    5.2669    1.0000 </r>
       <r>    6.3924    0.0000 </r>
       <r>    6.6729    0.0000 </r>
       <r>    6.7702    0.0000 </r>
       <r>    7.0561    0.0000 </r>
       <r>    7.5427    0.0000 </r>
       <r>    7.6248    0.0000 </r>
       <r>    8.0237    0.0000 </r>
       <r>    8.6818    0.0000 </r>
      </set>
      <set comment="kpoint 3">
       <r>   -5.7670    1.0000 </r>
       <r>   -4.2037    1.0000 </r>
       <r>   -2.5406    1.0000 </r>
       <r>   -2.4303    1.0000 </r>
       <r>   -1.6390    1.0000 </r>
       <r>   -1.5186    1.0000 </r>
       <r>    0.3808    1.0000 </r>
       <r>    1.8080    1.0000 </r>
       <r>    1.8923    1.0000 </r>
       <r>    2.3853    1.0000 </r>
       <r>    2.4837    1.0000 </r>
       <r>    3.0081    1.0000 </r>
       <r>    3.2899    1.0000 </r>
       <r>    3.5404    1.0000 </r>
       <r>    4.4608    1.0000 </r>
       <r>    4.6789    1.0000 </r>
       <r>    6.5130    0.0000 </r>
       <r>    7.4429    0.0000 </r>
       <r>    7.5968    0.0000 </r>
       <r>    7.6856    0.0000 </r>
       <r>    7.8188    0.0000 </r>
       <r>    8.6576    0.0000 </r>
       <r>    8.7557    0.0000 </r>
       <r>    9.3961    0.0000 </r>
      </set>
      <set comment="kpoint 4">
       <r>   -5.3760    1.0000 </r>
       <r>   -4.8390    1.0000 </r>
       <r>   -2.4822    1.0000 </r>
       <r>   -2.3759    1.0000 </r>
       <r>   -1.6199    1.0000 </r>
       <r>   -1.4991    1.0000 </r>
       <r>    1.3742    1.0000 </r>
       <r>    1.6151    1.0000 </r>
       <r>    1.6722    1.0000 </r>
       <r>    2.1864    1.0000 </r>
       <r>    2.2777    1.0000 </r>
       <r>    2.5478    1.0000 </r>
       <r>    3.4565    1.0000 </r>
       <r>    3.6419    1.0000 </r>
       <r>    3.8600    1.0000 </r>
       <r>    4.1344    1.0000 </r>
       <r>    6.7655    0.0000 </r>
       <r>    7.1431    0.0000 </r>
       <r>    8.3443    0.0000 </r>
       <r>    8.8546    0.0000 </r>
       <r>    8.9518    0.0000 </r>
       <r>    9.2401    0.0000 </r>
       <r>    9.8601    0.0000 </r>
       <r>    9.9605    0.0000 </r>
      </set>
      <set comment="kpoint 5">
       <r>   -5.3716    1.0000 </r>
       <r>   -4.8451    1.0000 </r>
       <r>   -2.4876    1.0000 </r>
       <r>   -2.3795    1.0000 </r>
       <r>   -1.6124    1.0000 </r>
       <r>   -1.4892    1.0000 </r>
       <r>    1.4526    1.0000 </r>
       <r>    1.5801    1.0000 </r>
       <r>    1.6512    1.0000 </r>
       <r>    2.2217    1.0000 </r>
       <r>    2.2936    1.0000 </r>
       <r>    2.4265    1.0000 </r>
       <r>    3.3472    1.0000 </r>
       <r>    3.6484    1.0000 </r>
       <r>    4.0131    1.0000 </r>
       <r>    4.1283    1.0000 </r>
       <r>    6.7783    0.0000 </r>
       <r>    7.1334    0.0000 </r>
       <r>    8.3485    0.0000 </r>
       <r>    8.9495    0.0000 </r>
       <r>    9.0362    0.0000 </r>
       <r>    9.2297    0.0000 </r>
       <r>    9.7384    0.0000 </r>
       <r>    9.8412    0.0000 </r>
      </set>
      <set comment="kpoint 6">
       <r>   -5.7640    1.0000 </r>
       <r>   -4.2120    1.0000 </r>
       <r>   -2.5522    1.0000 </r>
       <r>   -2.4391    1.0000 </r>
       <r>   -1.6220    1.0000 </r>
       <r>   -1.4959    1.0000 </r>
       <r>    0.4331    1.0000 </r>
       <r>    1.7533    1.0000 </r>
       <r>    1.8284    1.0000 </r>
       <r>    2.4357    1.0000 </r>
       <r>    2.5247    1.0000 </r>
       <r>    2.9471    1.0000 </r>
       <r>    3.2879    1.0000 </r>
       <r>    3.3778    1.0000 </r>
       <r>    4.6336    1.0000 </r>
       <r>    4.7039    1.0000 </r>
       <r>    6.5240    0.0000 </r>
       <r>    7.4707    0.0000 </r>
       <r>    7.6202    0.0000 </r>
       <r>    7.7796    0.0000 </r>
       <r>    7.8392    0.0000 </r>
       <r>    8.5738    0.0000 </r>
       <r>    8.6787    0.0000 </r>
       <r>    9.3738    0.0000 </r>
      </set>
      <set comment="kpoint 7">
       <r>   -6.0298    1.0000 </r>
       <r>   -3.4719    1.0000 </r>
       <r>   -2.6274    1.0000 </r>
       <r>   -2.5126    1.0000 </r>
       <r>   -1.6516    1.0000 </r>
       <r>   -1.5205    1.0000 </r>
       <r>   -0.5969    1.0000 </r>
       <r>    2.1094    1.0000 </r>
       <r>    2.2018    1.0000 </r>
       <r>    2.6617    1.0000 </r>
       <r>    2.7407    1.0000 </r>
       <r>    2.8418    1.0000 </r>
       <r>    3.0672    1.0000 </r>
       <r>    4.2007    1.0000 </r>
       <r>    5.2126    1.0000 </r>
       <r>    5.3365    1.0000 </r>
       <r>    6.3967    0.0000 </r>
       <r>    6.7445    0.0000 </r>
       <r>    6.8761    0.0000 </r>
       <r>    7.0681    0.0000 </r>
       <r>    7.4542    0.0000 </r>
       <r>    7.5430    0.0000 </r>
       <r>    8.0294    0.0000 </r>
       <r>    8.6643    0.0000 </r>
      </set>
      <set comment="kpoint 8">
       <r>   -6.1638    1.0000 </r>
       <r>   -2.7593    1.0000 </r>
       <r>   -2.6021    1.0000 </r>
       <r>   -2.5199    1.0000 </r>
       <r>   -1.7660    1.0000 </r>
       <r>   -1.5662    1.0000 </r>
       <r>   -1.4641    1.0000 </r>
       <r>    2.5075    1.0000 </r>
       <r>    2.5692    1.0000 </r>
       <r>    2.6437    1.0000 </r>
       <r>    2.8252    1.0000 </r>
       <r>    2.9437    1.0000 </r>
       <r>    2.9752    1.0000 </r>
       <r>    4.8817    1.0000 </r>
       <r>    5.5570    1.0000 </r>
       <r>    5.7126    1.0000 </r>
       <r>    6.2858    0.0000 </r>
       <r>    6.4063    0.0000 </r>
       <r>    6.4861    0.0000 </r>
       <r>    6.6319    0.0000 </r>
       <r>    6.7197    0.0000 </r>
       <r>    6.7992    0.0000 </r>
       <r>    8.1772    0.0000 </r>
       <r>    8.3097    0.0000 </r>
      </set>
      <set comment="kpoint 9">
       <r>   -6.0309    1.0000 </r>
       <r>   -3.4714    1.0000 </r>
       <r>   -2.6115    1.0000 </r>
       <r>   -2.4894    1.0000 </r>
       <r>   -1.7112    1.0000 </r>
       <r>   -1.5130    1.0000 </r>
       <r>   -0.6111    1.0000 </r>
       <r>    2.1416    1.0000 </r>
       <r>    2.2526    1.0000 </r>
       <r>    2.6449    1.0000 </r>
       <r>    2.7607    1.0000 </r>
       <r>    2.8560    1.0000 </r>
       <r>    3.0052    1.0000 </r>
       <r>    4.3111    1.0000 </r>
       <r>    5.0673    1.0000 </r>
       <r>    5.3703    1.0000 </r>
       <r>    6.3428    0.0000 </r>
       <r>    6.6796    0.0000 </r>
       <r>    6.8375    0.0000 </r>
       <r>    7.1094    0.0000 </r>
       <r>    7.4500    0.0000 </r>
       <r>    7.6277    0.0000 </r>
       <r>    8.0398    0.0000 </r>
       <r>    8.5735    0.0000 </r>
      </set>
      <set comment="kpoint 10">
       <r>   -5.9005    1.0000 </r>
       <r>   -3.4788    1.0000 </r>
       <r>   -3.2214    1.0000 </r>
       <r>   -2.6387    1.0000 </r>
       <r>   -1.4714    1.0000 </r>
       <r>   -0.9019    1.0000 </r>
       <r>   -0.5752    1.0000 </r>
       <r>    1.7757    1.0000 </r>
       <r>    2.2852    1.0000 </r>
       <r>    2.4138    1.0000 </r>
       <r>    2.8695    1.0000 </r>
       <r>    3.0134    1.0000 </r>
       <r>    3.0535    1.0000 </r>
       <r>    3.6487    1.0000 </r>
       <r>    4.7842    1.0000 </r>
       <r>    5.3055    1.0000 </r>
       <r>    6.5316    0.0000 </r>
       <r>    6.7910    0.0000 </r>
       <r>    6.9896    0.0000 </r>
       <r>    7.6660    0.0000 </r>
       <r>    7.7982    0.0000 </r>
       <r>    8.2978    0.0000 </r>
       <r>    8.5963    0.0000 </r>
       <r>    8.6590    0.0000 </r>
      </set>
      <set comment="kpoint 11">
       <r>   -5.6400    1.0000 </r>
       <r>   -4.0969    1.0000 </r>
       <r>   -3.1714    1.0000 </r>
       <r>   -2.7226    1.0000 </r>
       <r>   -1.3331    1.0000 </r>
       <r>   -0.9128    1.0000 </r>
       <r>    0.1707    1.0000 </r>
       <r>    1.4947    1.0000 </r>
       <r>    1.9375    1.0000 </r>
       <r>    2.6300    1.0000 </r>
       <r>    2.7744    1.0000 </r>
       <r>    2.8870    1.0000 </r>
       <r>    3.0077    1.0000 </r>
       <r>    3.3371    1.0000 </r>
       <r>    4.1832    1.0000 </r>
       <r>    4.9391    1.0000 </r>
       <r>    7.0475    0.0000 </r>
       <r>    7.0973    0.0000 </r>
       <r>    7.7904    0.0000 </r>
       <r>    8.0848    0.0000 </r>
       <r>    8.2687    0.0000 </r>
       <r>    8.8217    0.0000 </r>
       <r>    8.9291    0.0000 </r>
       <r>    9.5164    0.0000 </r>
      </set>
      <set comment="kpoint 12">
       <r>   -5.2552    1.0000 </r>
       <r>   -4.7176    1.0000 </r>
       <r>   -2.9730    1.0000 </r>
       <r>   -2.8612    1.0000 </r>
       <r>   -1.1419    1.0000 </r>
       <r>   -1.1147    1.0000 </r>
       <r>    1.0123    1.0000 </r>
       <r>    1.4409    1.0000 </r>
       <r>    1.6004    1.0000 </r>
       <r>    2.0413    1.0000 </r>
       <r>    2.7676    1.0000 </r>
       <r>    2.8026    1.0000 </r>
       <r>    3.1155    1.0000 </r>
       <r>    3.5719    1.0000 </r>
       <r>    3.8522    1.0000 </r>
       <r>    4.3260    1.0000 </r>
       <r>    7.3759    0.0000 </r>
       <r>    7.7512    0.0000 </r>
       <r>    8.1101    0.0000 </r>
       <r>    8.8087    0.0000 </r>
       <r>    9.0703    0.0000 </r>
       <r>    9.4128    0.0000 </r>
       <r>    9.5243    0.0000 </r>
       <r>    9.9029    0.0000 </r>
      </set>
      <set comment="kpoint 13">
       <r>   -5.2434    1.0000 </r>
       <r>   -4.7335    1.0000 </r>
       <r>   -3.0635    1.0000 </r>
       <r>   -2.7491    1.0000 </r>
       <r>   -1.3336    1.0000 </r>
       <r>   -0.9232    1.0000 </r>
       <r>    1.1623    1.0000 </r>
       <r>    1.3958    1.0000 </r>
       <r>    1.6140    1.0000 </r>
       <r>    1.8587    1.0000 </r>
       <r>    2.6613    1.0000 </r>
       <r>    2.9126    1.0000 </r>
       <r>    3.0544    1.0000 </r>
       <r>    3.6075    1.0000 </r>
       <r>    3.7433    1.0000 </r>
       <r>    4.5096    1.0000 </r>
       <r>    7.4121    0.0000 </r>
       <r>    7.7478    0.0000 </r>
       <r>    8.2576    0.0000 </r>
       <r>    8.8066    0.0000 </r>
       <r>    9.0969    0.0000 </r>
       <r>    9.3218    0.0000 </r>
       <r>    9.4374    0.0000 </r>
       <r>   10.0754    0.0000 </r>
      </set>
      <set comment="kpoint 14">
       <r>   -5.6318    1.0000 </r>
       <r>   -4.1153    1.0000 </r>
       <r>   -3.2478    1.0000 </r>
       <r>   -2.6009    1.0000 </r>
       <r>   -1.5008    1.0000 </r>
       <r>   -0.7363    1.0000 </r>
       <r>    0.2855    1.0000 </r>
       <r>    1.4105    1.0000 </r>
       <r>    1.9103    1.0000 </r>
       <r>    2.5347    1.0000 </r>
       <r>    2.6700    1.0000 </r>
       <r>    2.7456    1.0000 </r>
       <r>    3.1289    1.0000 </r>
       <r>    3.2664    1.0000 </r>
       <r>    4.2103    1.0000 </r>
       <r>    5.1743    1.0000 </r>
       <r>    7.1252    0.0000 </r>
       <r>    7.2505    0.0000 </r>
       <r>    7.8123    0.0000 </r>
       <r>    8.1419    0.0000 </r>
       <r>    8.1785    0.0000 </r>
       <r>    8.8500    0.0000 </r>
       <r>    8.8944    0.0000 </r>
       <r>    9.5193    0.0000 </r>
      </set>
      <set comment="kpoint 15">
       <r>   -5.8958    1.0000 </r>
       <r>   -3.4523    1.0000 </r>
       <r>   -3.3330    1.0000 </r>
       <r>   -2.5431    1.0000 </r>
       <r>   -1.5891    1.0000 </r>
       <r>   -0.6664    1.0000 </r>
       <r>   -0.5992    1.0000 </r>
       <r>    1.6684    1.0000 </r>
       <r>    2.2532    1.0000 </r>
       <r>    2.3418    1.0000 </r>
       <r>    2.8386    1.0000 </r>
       <r>    3.0096    1.0000 </r>
       <r>    3.1469    1.0000 </r>
       <r>    3.4558    1.0000 </r>
       <r>    4.7903    1.0000 </r>
       <r>    5.5614    1.0000 </r>
       <r>    6.7107    0.0000 </r>
       <r>    6.8622    0.0000 </r>
       <r>    7.0035    0.0000 </r>
       <r>    7.6165    0.0000 </r>
       <r>    7.8149    0.0000 </r>
       <r>    8.3140    0.0000 </r>
       <r>    8.4378    0.0000 </r>
       <r>    8.5725    0.0000 </r>
      </set>
      <set comment="kpoint 16">
       <r>   -6.0294    1.0000 </r>
       <r>   -3.4759    1.0000 </r>
       <r>   -2.6549    1.0000 </r>
       <r>   -2.4734    1.0000 </r>
       <r>   -1.7074    1.0000 </r>
       <r>   -1.4691    1.0000 </r>
       <r>   -0.5900    1.0000 </r>
       <r>    2.0839    1.0000 </r>
       <r>    2.1835    1.0000 </r>
       <r>    2.7063    1.0000 </r>
       <r>    2.7568    1.0000 </r>
       <r>    2.8348    1.0000 </r>
       <r>    3.0389    1.0000 </r>
       <r>    4.1681    1.0000 </r>
       <r>    5.1362    1.0000 </r>
       <r>    5.4710    1.0000 </r>
       <r>    6.3646    0.0000 </r>
       <r>    6.7967    0.0000 </r>
       <r>    6.9382    0.0000 </r>
       <r>    7.0734    0.0000 </r>
       <r>    7.3505    0.0000 </r>
       <r>    7.5523    0.0000 </r>
       <r>    8.0347    0.0000 </r>
       <r>    8.6033    0.0000 </r>
      </set>
      <set comment="kpoint 17">
       <r>   -5.7657    1.0000 </r>
       <r>   -4.2102    1.0000 </r>
       <r>   -2.5531    1.0000 </r>
       <r>   -2.3902    1.0000 </r>
       <r>   -1.7115    1.0000 </r>
       <r>   -1.4695    1.0000 </r>
       <r>    0.4055    1.0000 </r>
       <r>    1.7841    1.0000 </r>
       <r>    1.8889    1.0000 </r>
       <r>    2.3533    1.0000 </r>
       <r>    2.5230    1.0000 </r>
       <r>    3.0570    1.0000 </r>
       <r>    3.2360    1.0000 </r>
       <r>    3.4430    1.0000 </r>
       <r>    4.5313    1.0000 </r>
       <r>    4.7311    1.0000 </r>
       <r>    6.4821    0.0000 </r>
       <r>    7.3908    0.0000 </r>
       <r>    7.6087    0.0000 </r>
       <r>    7.7287    0.0000 </r>
       <r>    7.9276    0.0000 </r>
       <r>    8.5879    0.0000 </r>
       <r>    8.7509    0.0000 </r>
       <r>    9.3235    0.0000 </r>
      </set>
      <set comment="kpoint 18">
       <r>   -5.6394    1.0000 </r>
       <r>   -4.1060    1.0000 </r>
       <r>   -3.1484    1.0000 </r>
       <r>   -2.7310    1.0000 </r>
       <r>   -1.3244    1.0000 </r>
       <r>   -0.9521    1.0000 </r>
       <r>    0.2018    1.0000 </r>
       <r>    1.5046    1.0000 </r>
       <r>    1.9362    1.0000 </r>
       <r>    2.6387    1.0000 </r>
       <r>    2.7856    1.0000 </r>
       <r>    2.8497    1.0000 </r>
       <r>    2.9906    1.0000 </r>
       <r>    3.3249    1.0000 </r>
       <r>    4.2204    1.0000 </r>
       <r>    4.9434    1.0000 </r>
       <r>    7.0097    0.0000 </r>
       <r>    7.0549    0.0000 </r>
       <r>    7.8619    0.0000 </r>
       <r>    8.1869    0.0000 </r>
       <r>    8.2724    0.0000 </r>
       <r>    8.7520    0.0000 </r>
       <r>    8.8406    0.0000 </r>
       <r>    9.5799    0.0000 </r>
      </set>
      <set comment="kpoint 19">
       <r>   -5.3865    1.0000 </r>
       <r>   -3.9991    1.0000 </r>
       <r>   -3.7451    1.0000 </r>
       <r>   -3.0079    1.0000 </r>
       <r>   -1.0679    1.0000 </r>
       <r>   -0.3657    1.0000 </r>
       <r>   -0.0087    1.0000 </r>
       <r>    1.3633    1.0000 </r>
       <r>    2.0391    1.0000 </r>
       <r>    2.1934    1.0000 </r>
       <r>    2.2634    1.0000 </r>
       <r>    3.2440    1.0000 </r>
       <r>    3.3886    1.0000 </r>
       <r>    3.4646    1.0000 </r>
       <r>    3.6625    1.0000 </r>
       <r>    5.0116    1.0000 </r>
       <r>    6.9947    0.0000 </r>
       <r>    7.9051    0.0000 </r>
       <r>    8.1685    0.0000 </r>
       <r>    8.3963    0.0000 </r>
       <r>    9.0106    0.0000 </r>
       <r>    9.2126    0.0000 </r>
       <r>    9.3004    0.0000 </r>
       <r>    9.3927    0.0000 </r>
      </set>
      <set comment="kpoint 20">
       <r>   -5.0142    1.0000 </r>
       <r>   -4.4889    1.0000 </r>
       <r>   -3.5742    1.0000 </r>
       <r>   -3.3266    1.0000 </r>
       <r>   -0.7408    1.0000 </r>
       <r>   -0.5887    1.0000 </r>
       <r>    0.5102    1.0000 </r>
       <r>    1.3396    1.0000 </r>
       <r>    1.4983    1.0000 </r>
       <r>    1.7542    1.0000 </r>
       <r>    2.5960    1.0000 </r>
       <r>    3.0386    1.0000 </r>
       <r>    3.4435    1.0000 </r>
       <r>    3.5127    1.0000 </r>
       <r>    4.0954    1.0000 </r>
       <r>    4.5946    1.0000 </r>
       <r>    7.5921    0.0000 </r>
       <r>    8.3274    0.0000 </r>
       <r>    8.5362    0.0000 </r>
       <r>    8.8308    0.0000 </r>
       <r>    8.9680    0.0000 </r>
       <r>    9.2506    0.0000 </r>
       <r>    9.4579    0.0000 </r>
       <r>    9.7651    0.0000 </r>
      </set>
      <set comment="kpoint 21">
       <r>   -4.9948    1.0000 </r>
       <r>   -4.5124    1.0000 </r>
       <r>   -3.6540    1.0000 </r>
       <r>   -3.2276    1.0000 </r>
       <r>   -0.9557    1.0000 </r>
       <r>   -0.3624    1.0000 </r>
       <r>    0.6779    1.0000 </r>
       <r>    1.1747    1.0000 </r>
       <r>    1.4552    1.0000 </r>
       <r>    1.7468    1.0000 </r>
       <r>    2.5593    1.0000 </r>
       <r>    3.0672    1.0000 </r>
       <r>    3.3289    1.0000 </r>
       <r>    3.6224    1.0000 </r>
       <r>    3.9280    1.0000 </r>
       <r>    4.8025    1.0000 </r>
       <r>    7.7784    0.0000 </r>
       <r>    8.3554    0.0000 </r>
       <r>    8.5981    0.0000 </r>
       <r>    8.7009    0.0000 </r>
       <r>    8.9343    0.0000 </r>
       <r>    9.1486    0.0000 </r>
       <r>    9.4903    0.0000 </r>
       <r>    9.7665    0.0000 </r>
      </set>
      <set comment="kpoint 22">
       <r>   -5.3728    1.0000 </r>
       <r>   -3.9837    1.0000 </r>
       <r>   -3.8589    1.0000 </r>
       <r>   -2.8849    1.0000 </r>
       <r>   -1.2709    1.0000 </r>
       <r>   -0.0263    1.0000 </r>
       <r>    0.0186    1.0000 </r>
       <r>    1.3024    1.0000 </r>
       <r>    1.8951    1.0000 </r>
       <r>    2.0988    1.0000 </r>
       <r>    2.2414    1.0000 </r>
       <r>    3.1010    1.0000 </r>
       <r>    3.3477    1.0000 </r>
       <r>    3.5525    1.0000 </r>
       <r>    3.6558    1.0000 </r>
       <r>    5.2531    1.0000 </r>
       <r>    7.1816    0.0000 </r>
       <r>    8.0150    0.0000 </r>
       <r>    8.1536    0.0000 </r>
       <r>    8.4935    0.0000 </r>
       <r>    8.8961    0.0000 </r>
       <r>    9.1451    0.0000 </r>
       <r>    9.3083    0.0000 </r>
       <r>    9.4137    0.0000 </r>
      </set>
      <set comment="kpoint 23">
       <r>   -5.6314    1.0000 </r>
       <r>   -4.1217    1.0000 </r>
       <r>   -3.2339    1.0000 </r>
       <r>   -2.6064    1.0000 </r>
       <r>   -1.4931    1.0000 </r>
       <r>   -0.7659    1.0000 </r>
       <r>    0.3122    1.0000 </r>
       <r>    1.4143    1.0000 </r>
       <r>    1.9003    1.0000 </r>
       <r>    2.5798    1.0000 </r>
       <r>    2.6357    1.0000 </r>
       <r>    2.7413    1.0000 </r>
       <r>    3.0949    1.0000 </r>
       <r>    3.2761    1.0000 </r>
       <r>    4.2259    1.0000 </r>
       <r>    5.1855    1.0000 </r>
       <r>    7.0734    0.0000 </r>
       <r>    7.2347    0.0000 </r>
       <r>    7.8884    0.0000 </r>
       <r>    8.1447    0.0000 </r>
       <r>    8.2505    0.0000 </r>
       <r>    8.7643    0.0000 </r>
       <r>    8.8329    0.0000 </r>
       <r>    9.5803    0.0000 </r>
      </set>
      <set comment="kpoint 24">
       <r>   -5.7631    1.0000 </r>
       <r>   -4.2162    1.0000 </r>
       <r>   -2.5663    1.0000 </r>
       <r>   -2.4108    1.0000 </r>
       <r>   -1.6658    1.0000 </r>
       <r>   -1.4611    1.0000 </r>
       <r>    0.4500    1.0000 </r>
       <r>    1.7331    1.0000 </r>
       <r>    1.8208    1.0000 </r>
       <r>    2.4353    1.0000 </r>
       <r>    2.5312    1.0000 </r>
       <r>    2.9897    1.0000 </r>
       <r>    3.2209    1.0000 </r>
       <r>    3.3518    1.0000 </r>
       <r>    4.5849    1.0000 </r>
       <r>    4.8252    1.0000 </r>
       <r>    6.5025    0.0000 </r>
       <r>    7.4527    0.0000 </r>
       <r>    7.6145    0.0000 </r>
       <r>    7.7964    0.0000 </r>
       <r>    7.9387    0.0000 </r>
       <r>    8.4975    0.0000 </r>
       <r>    8.6878    0.0000 </r>
       <r>    9.3163    0.0000 </r>
      </set>
      <set comment="kpoint 25">
       <r>   -5.3739    1.0000 </r>
       <r>   -4.8439    1.0000 </r>
       <r>   -2.5062    1.0000 </r>
       <r>   -2.3032    1.0000 </r>
       <r>   -1.7292    1.0000 </r>
       <r>   -1.4415    1.0000 </r>
       <r>    1.3918    1.0000 </r>
       <r>    1.6294    1.0000 </r>
       <r>    1.7028    1.0000 </r>
       <r>    2.1316    1.0000 </r>
       <r>    2.3081    1.0000 </r>
       <r>    2.4720    1.0000 </r>
       <r>    3.4718    1.0000 </r>
       <r>    3.5872    1.0000 </r>
       <r>    3.9896    1.0000 </r>
       <r>    4.1062    1.0000 </r>
       <r>    6.7437    0.0000 </r>
       <r>    7.1093    0.0000 </r>
       <r>    8.3567    0.0000 </r>
       <r>    8.8635    0.0000 </r>
       <r>    9.0726    0.0000 </r>
       <r>    9.2239    0.0000 </r>
       <r>    9.8066    0.0000 </r>
       <r>    9.9791    0.0000 </r>
      </set>
      <set comment="kpoint 26">
       <r>   -5.2538    1.0000 </r>
       <r>   -4.7243    1.0000 </r>
       <r>   -2.9355    1.0000 </r>
       <r>   -2.8715    1.0000 </r>
       <r>   -1.1970    1.0000 </r>
       <r>   -1.1134    1.0000 </r>
       <r>    1.0425    1.0000 </r>
       <r>    1.4762    1.0000 </r>
       <r>    1.6313    1.0000 </r>
       <r>    2.0104    1.0000 </r>
       <r>    2.7387    1.0000 </r>
       <r>    2.7955    1.0000 </r>
       <r>    3.0695    1.0000 </r>
       <r>    3.6328    1.0000 </r>
       <r>    3.8799    1.0000 </r>
       <r>    4.2979    1.0000 </r>
       <r>    7.3152    0.0000 </r>
       <r>    7.6872    0.0000 </r>
       <r>    8.1571    0.0000 </r>
       <r>    8.8450    0.0000 </r>
       <r>    9.1847    0.0000 </r>
       <r>    9.3803    0.0000 </r>
       <r>    9.5238    0.0000 </r>
       <r>    9.9289    0.0000 </r>
      </set>
      <set comment="kpoint 27">
       <r>   -5.0135    1.0000 </r>
       <r>   -4.4980    1.0000 </r>
       <r>   -3.5530    1.0000 </r>
       <r>   -3.3289    1.0000 </r>
       <r>   -0.7460    1.0000 </r>
       <r>   -0.6413    1.0000 </r>
       <r>    0.5543    1.0000 </r>
       <r>    1.3352    1.0000 </r>
       <r>    1.5091    1.0000 </r>
       <r>    1.8002    1.0000 </r>
       <r>    2.5474    1.0000 </r>
       <r>    3.0564    1.0000 </r>
       <r>    3.4309    1.0000 </r>
       <r>    3.5046    1.0000 </r>
       <r>    4.1144    1.0000 </r>
       <r>    4.5806    1.0000 </r>
       <r>    7.5833    0.0000 </r>
       <r>    8.2470    0.0000 </r>
       <r>    8.6612    0.0000 </r>
       <r>    8.7700    0.0000 </r>
       <r>    8.8478    0.0000 </r>
       <r>    9.3283    0.0000 </r>
       <r>    9.4806    0.0000 </r>
       <r>    9.8661    0.0000 </r>
      </set>
      <set comment="kpoint 28">
       <r>   -4.6633    1.0000 </r>
       <r>   -4.2632    1.0000 </r>
       <r>   -4.0165    1.0000 </r>
       <r>   -3.7765    1.0000 </r>
       <r>   -0.3008    1.0000 </r>
       <r>   -0.2115    1.0000 </r>
       <r>    0.1508    1.0000 </r>
       <r>    0.7374    1.0000 </r>
       <r>    1.6840    1.0000 </r>
       <r>    2.0099    1.0000 </r>
       <r>    2.1581    1.0000 </r>
       <r>    2.5373    1.0000 </r>
       <r>    3.9152    1.0000 </r>
       <r>    4.1061    1.0000 </r>
       <r>    4.3539    1.0000 </r>
       <r>    4.5550    1.0000 </r>
       <r>    7.6026    0.0000 </r>
       <r>    8.2032    0.0000 </r>
       <r>    8.3141    0.0000 </r>
       <r>    8.5030    0.0000 </r>
       <r>    9.3668    0.0000 </r>
       <r>    9.6515    0.0000 </r>
       <r>    9.8978    0.0000 </r>
       <r>    9.9867    0.0000 </r>
      </set>
      <set comment="kpoint 29">
       <r>   -4.6386    1.0000 </r>
       <r>   -4.2521    1.0000 </r>
       <r>   -4.1286    1.0000 </r>
       <r>   -3.6958    1.0000 </r>
       <r>   -0.5299    1.0000 </r>
       <r>    0.1390    1.0000 </r>
       <r>    0.2061    1.0000 </r>
       <r>    0.5641    1.0000 </r>
       <r>    1.6703    1.0000 </r>
       <r>    2.0045    1.0000 </r>
       <r>    2.1364    1.0000 </r>
       <r>    2.5624    1.0000 </r>
       <r>    3.9114    1.0000 </r>
       <r>    4.0793    1.0000 </r>
       <r>    4.2014    1.0000 </r>
       <r>    4.7498    1.0000 </r>
       <r>    7.7877    0.0000 </r>
       <r>    8.1526    0.0000 </r>
       <r>    8.2741    0.0000 </r>
       <r>    8.3835    0.0000 </r>
       <r>    9.5349    0.0000 </r>
       <r>    9.6192    0.0000 </r>
       <r>    9.7672    0.0000 </r>
       <r>   10.0215    0.0000 </r>
      </set>
      <set comment="kpoint 30">
       <r>   -4.9942    1.0000 </r>
       <r>   -4.5197    1.0000 </r>
       <r>   -3.6394    1.0000 </r>
       <r>   -3.2286    1.0000 </r>
       <r>   -0.9547    1.0000 </r>
       <r>   -0.4131    1.0000 </r>
       <r>    0.7260    1.0000 </r>
       <r>    1.1629    1.0000 </r>
       <r>    1.4606    1.0000 </r>
       <r>    1.7873    1.0000 </r>
       <r>    2.5192    1.0000 </r>
       <r>    3.0833    1.0000 </r>
       <r>    3.3267    1.0000 </r>
       <r>    3.5977    1.0000 </r>
       <r>    3.9481    1.0000 </r>
       <r>    4.7991    1.0000 </r>
       <r>    7.7798    0.0000 </r>
       <r>    8.2623    0.0000 </r>
       <r>    8.6210    0.0000 </r>
       <r>    8.7120    0.0000 </r>
       <r>    8.8677    0.0000 </r>
       <r>    9.2462    0.0000 </r>
       <r>    9.4775    0.0000 </r>
       <r>    9.8293    0.0000 </r>
      </set>
      <set comment="kpoint 31">
       <r>   -5.2424    1.0000 </r>
       <r>   -4.7387    1.0000 </r>
       <r>   -3.0411    1.0000 </r>
       <r>   -2.7557    1.0000 </r>
       <r>   -1.3239    1.0000 </r>
       <r>   -0.9710    1.0000 </r>
       <r>    1.2059    1.0000 </r>
       <r>    1.4038    1.0000 </r>
       <r>    1.6186    1.0000 </r>
       <r>    1.8532    1.0000 </r>
       <r>    2.6633    1.0000 </r>
       <r>    2.8941    1.0000 </r>
       <r>    3.0141    1.0000 </r>
       <r>    3.6333    1.0000 </r>
       <r>    3.7674    1.0000 </r>
       <r>    4.5064    1.0000 </r>
       <r>    7.3592    0.0000 </r>
       <r>    7.7066    0.0000 </r>
       <r>    8.2540    0.0000 </r>
       <r>    8.8882    0.0000 </r>
       <r>    9.1627    0.0000 </r>
       <r>    9.3163    0.0000 </r>
       <r>    9.4084    0.0000 </r>
       <r>   10.0848    0.0000 </r>
      </set>
      <set comment="kpoint 32">
       <r>   -5.3701    1.0000 </r>
       <r>   -4.8487    1.0000 </r>
       <r>   -2.4734    1.0000 </r>
       <r>   -2.3784    1.0000 </r>
       <r>   -1.6272    1.0000 </r>
       <r>   -1.4909    1.0000 </r>
       <r>    1.4664    1.0000 </r>
       <r>    1.5938    1.0000 </r>
       <r>    1.6584    1.0000 </r>
       <r>    2.2075    1.0000 </r>
       <r>    2.2822    1.0000 </r>
       <r>    2.3906    1.0000 </r>
       <r>    3.3626    1.0000 </r>
       <r>    3.6152    1.0000 </r>
       <r>    4.0581    1.0000 </r>
       <r>    4.1503    1.0000 </r>
       <r>    6.7612    0.0000 </r>
       <r>    7.0987    0.0000 </r>
       <r>    8.3700    0.0000 </r>
       <r>    8.9611    0.0000 </r>
       <r>    9.1431    0.0000 </r>
       <r>    9.1971    0.0000 </r>
       <r>    9.6480    0.0000 </r>
       <r>    9.8983    0.0000 </r>
      </set>
      <set comment="kpoint 33">
       <r>   -5.3743    1.0000 </r>
       <r>   -4.8433    1.0000 </r>
       <r>   -2.5079    1.0000 </r>
       <r>   -2.3004    1.0000 </r>
       <r>   -1.7292    1.0000 </r>
       <r>   -1.4435    1.0000 </r>
       <r>    1.4262    1.0000 </r>
       <r>    1.5791    1.0000 </r>
       <r>    1.7003    1.0000 </r>
       <r>    2.1415    1.0000 </r>
       <r>    2.2995    1.0000 </r>
       <r>    2.4941    1.0000 </r>
       <r>    3.4836    1.0000 </r>
       <r>    3.5867    1.0000 </r>
       <r>    3.9769    1.0000 </r>
       <r>    4.1028    1.0000 </r>
       <r>    6.7433    0.0000 </r>
       <r>    7.1133    0.0000 </r>
       <r>    8.3626    0.0000 </r>
       <r>    8.8549    0.0000 </r>
       <r>    9.0442    0.0000 </r>
       <r>    9.2408    0.0000 </r>
       <r>    9.7944    0.0000 </r>
       <r>    9.9666    0.0000 </r>
      </set>
      <set comment="kpoint 34">
       <r>   -5.2473    1.0000 </r>
       <r>   -4.7328    1.0000 </r>
       <r>   -3.0668    1.0000 </r>
       <r>   -2.6973    1.0000 </r>
       <r>   -1.4254    1.0000 </r>
       <r>   -0.9169    1.0000 </r>
       <r>    1.1390    1.0000 </r>
       <r>    1.4128    1.0000 </r>
       <r>    1.6438    1.0000 </r>
       <r>    1.9546    1.0000 </r>
       <r>    2.5990    1.0000 </r>
       <r>    2.9110    1.0000 </r>
       <r>    3.1632    1.0000 </r>
       <r>    3.5491    1.0000 </r>
       <r>    3.6746    1.0000 </r>
       <r>    4.5264    1.0000 </r>
       <r>    7.3638    0.0000 </r>
       <r>    7.6836    0.0000 </r>
       <r>    8.2518    0.0000 </r>
       <r>    8.8444    0.0000 </r>
       <r>    8.9939    0.0000 </r>
       <r>    9.4202    0.0000 </r>
       <r>    9.4609    0.0000 </r>
       <r>   10.0670    0.0000 </r>
      </set>
      <set comment="kpoint 35">
       <r>   -5.0004    1.0000 </r>
       <r>   -4.5127    1.0000 </r>
       <r>   -3.6532    1.0000 </r>
       <r>   -3.1972    1.0000 </r>
       <r>   -1.0319    1.0000 </r>
       <r>   -0.3681    1.0000 </r>
       <r>    0.6617    1.0000 </r>
       <r>    1.2013    1.0000 </r>
       <r>    1.5270    1.0000 </r>
       <r>    1.7941    1.0000 </r>
       <r>    2.6012    1.0000 </r>
       <r>    3.0129    1.0000 </r>
       <r>    3.3050    1.0000 </r>
       <r>    3.6034    1.0000 </r>
       <r>    3.8978    1.0000 </r>
       <r>    4.8218    1.0000 </r>
       <r>    7.7766    0.0000 </r>
       <r>    8.2935    0.0000 </r>
       <r>    8.4948    0.0000 </r>
       <r>    8.7313    0.0000 </r>
       <r>    8.9453    0.0000 </r>
       <r>    9.1848    0.0000 </r>
       <r>    9.3801    0.0000 </r>
       <r>    9.8461    0.0000 </r>
      </set>
      <set comment="kpoint 36">
       <r>   -4.6464    1.0000 </r>
       <r>   -4.2523    1.0000 </r>
       <r>   -4.1283    1.0000 </r>
       <r>   -3.6768    1.0000 </r>
       <r>   -0.5955    1.0000 </r>
       <r>    0.1331    1.0000 </r>
       <r>    0.2003    1.0000 </r>
       <r>    0.6146    1.0000 </r>
       <r>    1.7306    1.0000 </r>
       <r>    2.0315    1.0000 </r>
       <r>    2.1490    1.0000 </r>
       <r>    2.5030    1.0000 </r>
       <r>    3.9060    1.0000 </r>
       <r>    4.0700    1.0000 </r>
       <r>    4.1773    1.0000 </r>
       <r>    4.7627    1.0000 </r>
       <r>    7.7859    0.0000 </r>
       <r>    8.1486    0.0000 </r>
       <r>    8.2918    0.0000 </r>
       <r>    8.3890    0.0000 </r>
       <r>    9.4549    0.0000 </r>
       <r>    9.5471    0.0000 </r>
       <r>    9.6572    0.0000 </r>
       <r>   10.0124    0.0000 </r>
      </set>
      <set comment="kpoint 37">
       <r>   -4.6689    1.0000 </r>
       <r>   -4.2635    1.0000 </r>
       <r>   -4.0194    1.0000 </r>
       <r>   -3.7599    1.0000 </r>
       <r>   -0.3599    1.0000 </r>
       <r>   -0.2128    1.0000 </r>
       <r>    0.1458    1.0000 </r>
       <r>    0.7892    1.0000 </r>
       <r>    1.7226    1.0000 </r>
       <r>    2.0282    1.0000 </r>
       <r>    2.1773    1.0000 </r>
       <r>    2.4850    1.0000 </r>
       <r>    3.9097    1.0000 </r>
       <r>    4.0941    1.0000 </r>
       <r>    4.3460    1.0000 </r>
       <r>    4.5634    1.0000 </r>
       <r>    7.5995    0.0000 </r>
       <r>    8.1994    0.0000 </r>
       <r>    8.3248    0.0000 </r>
       <r>    8.5123    0.0000 </r>
       <r>    9.3217    0.0000 </r>
       <r>    9.5786    0.0000 </r>
       <r>    9.8161    0.0000 </r>
       <r>    9.9579    0.0000 </r>
      </set>
      <set comment="kpoint 38">
       <r>   -5.0181    1.0000 </r>
       <r>   -4.4899    1.0000 </r>
       <r>   -3.5755    1.0000 </r>
       <r>   -3.3033    1.0000 </r>
       <r>   -0.8026    1.0000 </r>
       <r>   -0.5905    1.0000 </r>
       <r>    0.4952    1.0000 </r>
       <r>    1.3924    1.0000 </r>
       <r>    1.5369    1.0000 </r>
       <r>    1.7786    1.0000 </r>
       <r>    2.6359    1.0000 </r>
       <r>    2.9839    1.0000 </r>
       <r>    3.4251    1.0000 </r>
       <r>    3.4969    1.0000 </r>
       <r>    4.0848    1.0000 </r>
       <r>    4.6085    1.0000 </r>
       <r>    7.5776    0.0000 </r>
       <r>    8.2893    0.0000 </r>
       <r>    8.4860    0.0000 </r>
       <r>    8.8522    0.0000 </r>
       <r>    8.9356    0.0000 </r>
       <r>    9.2440    0.0000 </r>
       <r>    9.4297    0.0000 </r>
       <r>    9.8257    0.0000 </r>
[...]
       <r>   -4.0726    1.0000 </r>
       <r>   -3.7070    1.0000 </r>
       <r>   -0.5138    1.0000 </r>
       <r>   -0.0614    1.0000 </r>
       <r>    0.2141    1.0000 </r>
       <r>    0.7062    1.0000 </r>
       <r>    1.7478    1.0000 </r>
       <r>    2.0320    1.0000 </r>
       <r>    2.1424    1.0000 </r>
       <r>    2.4741    1.0000 </r>
       <r>    3.9768    1.0000 </r>
       <r>    4.0895    1.0000 </r>
       <r>    4.2192    1.0000 </r>
       <r>    4.6728    1.0000 </r>
       <r>    7.6899    0.0000 </r>
       <r>    8.2364    0.0000 </r>
       <r>    8.2598    0.0000 </r>
       <r>    8.3823    0.0000 </r>
       <r>    9.3284    0.0000 </r>
       <r>    9.5924    0.0000 </r>
       <r>    9.7098    0.0000 </r>
       <r>    9.9802    0.0000 </r>
      </set>
      <set comment="kpoint 254">
       <r>   -5.0189    1.0000 </r>
       <r>   -4.4908    1.0000 </r>
       <r>   -3.6222    1.0000 </r>
       <r>   -3.2307    1.0000 </r>
       <r>   -0.9625    1.0000 </r>
       <r>   -0.4974    1.0000 </r>
       <r>    0.6127    1.0000 </r>
       <r>    1.3199    1.0000 </r>
       <r>    1.5372    1.0000 </r>
       <r>    1.8134    1.0000 </r>
       <r>    2.5851    1.0000 </r>
       <r>    2.9876    1.0000 </r>
       <r>    3.3616    1.0000 </r>
       <r>    3.5806    1.0000 </r>
       <r>    3.9670    1.0000 </r>
       <r>    4.7267    1.0000 </r>
       <r>    7.6676    0.0000 </r>
       <r>    8.2621    0.0000 </r>
       <r>    8.5072    0.0000 </r>
       <r>    8.7321    0.0000 </r>
       <r>    8.8970    0.0000 </r>
       <r>    9.2117    0.0000 </r>
       <r>    9.4180    0.0000 </r>
       <r>    9.9025    0.0000 </r>
      </set>
      <set comment="kpoint 255">
       <r>   -5.2626    1.0000 </r>
       <r>   -4.7128    1.0000 </r>
       <r>   -3.0277    1.0000 </r>
       <r>   -2.7398    1.0000 </r>
       <r>   -1.3636    1.0000 </r>
       <r>   -1.0247    1.0000 </r>
       <r>    1.0953    1.0000 </r>
       <r>    1.4786    1.0000 </r>
       <r>    1.6642    1.0000 </r>
       <r>    2.0162    1.0000 </r>
       <r>    2.6565    1.0000 </r>
       <r>    2.8554    1.0000 </r>
       <r>    3.1481    1.0000 </r>
       <r>    3.5273    1.0000 </r>
       <r>    3.7369    1.0000 </r>
       <r>    4.4359    1.0000 </r>
       <r>    7.3017    0.0000 </r>
       <r>    7.6595    0.0000 </r>
       <r>    8.2093    0.0000 </r>
       <r>    8.8866    0.0000 </r>
       <r>    8.9615    0.0000 </r>
       <r>    9.4686    0.0000 </r>
       <r>    9.5502    0.0000 </r>
       <r>   10.0268    0.0000 </r>
      </set>
      <set comment="kpoint 256">
       <r>   -5.3861    1.0000 </r>
       <r>   -4.8262    1.0000 </r>
       <r>   -2.4718    1.0000 </r>
       <r>   -2.3380    1.0000 </r>
       <r>   -1.7014    1.0000 </r>
       <r>   -1.4975    1.0000 </r>
       <r>    1.4146    1.0000 </r>
       <r>    1.6368    1.0000 </r>
       <r>    1.7100    1.0000 </r>
       <r>    2.1586    1.0000 </r>
       <r>    2.2686    1.0000 </r>
       <r>    2.5360    1.0000 </r>
       <r>    3.4782    1.0000 </r>
       <r>    3.5534    1.0000 </r>
       <r>    3.9816    1.0000 </r>
       <r>    4.0619    1.0000 </r>
       <r>    6.7187    0.0000 </r>
       <r>    7.1145    0.0000 </r>
       <r>    8.3903    0.0000 </r>
       <r>    8.8125    0.0000 </r>
       <r>    9.0144    0.0000 </r>
       <r>    9.3044    0.0000 </r>
       <r>    9.8217    0.0000 </r>
       <r>   10.0630    0.0000 </r>
      </set>
     </set>
    </set>
   </array>
  </eigenvalues>
  <separator name="orbital magnetization" >
   <v name="MAGDIPOLOUT">      0.00000000      0.00000000      0.00000000</v>
  </separator>
  <dos>
   <i name="efermi">      5.79290182 </i>
   <total>
    <array>
     <dimension dim="1">gridpoints</dimension>
     <dimension dim="2">spin</dimension>
     <field>energy</field>
     <field>total</field>
     <field>integrated</field>
     <set>
      <set comment="spin 1">
       <r>    -6.9822     0.0000     0.0000 </r>
       <r>    -6.9222     0.0000     0.0000 </r>
       <r>    -6.8623     0.0000     0.0000 </r>
       <r>    -6.8023     0.0000     0.0000 </r>
       <r>    -6.7424     0.0000     0.0000 </r>
       <r>    -6.6824     0.0000     0.0000 </r>
       <r>    -6.6225     0.0000     0.0000 </r>
       <r>    -6.5626     0.0000     0.0000 </r>
       <r>    -6.5026     0.0000     0.0000 </r>
       <r>    -6.4427     0.0000     0.0000 </r>
       <r>    -6.3827     0.0000     0.0000 </r>
       <r>    -6.3228     0.0000     0.0000 </r>
       <r>    -6.2629     0.0000     0.0000 </r>
       <r>    -6.2029     0.0000     0.0000 </r>
       <r>    -6.1430     0.5189     0.0311 </r>
       <r>    -6.0830     0.0000     0.0313 </r>
       <r>    -6.0231     1.6209     0.1284 </r>
       <r>    -5.9631    -0.0569     0.1250 </r>
       <r>    -5.9032     0.2621     0.1407 </r>
       <r>    -5.8433     1.3019     0.2187 </r>
       <r>    -5.7833    -0.0169     0.2177 </r>
       <r>    -5.7234     2.1023     0.3437 </r>
       <r>    -5.6634     0.0069     0.3442 </r>
       <r>    -5.6035     3.1207     0.5312 </r>
       <r>    -5.5436     0.0010     0.5313 </r>
       <r>    -5.4836     1.5610     0.6249 </r>
       <r>    -5.4237     0.0009     0.6250 </r>
       <r>    -5.3637     3.1798     0.8156 </r>
       <r>    -5.3038    -0.0555     0.8125 </r>
       <r>    -5.2438     4.3572     1.0737 </r>
       <r>    -5.1839     0.3330     1.0938 </r>
       <r>    -5.1240     1.3173     1.1727 </r>
       <r>    -5.0640     0.2464     1.1875 </r>
       <r>    -5.0041     2.6984     1.3493 </r>
       <r>    -4.9441     0.9492     1.4063 </r>
       <r>    -4.8842     2.5551     1.5595 </r>
       <r>    -4.8243     2.0279     1.6811 </r>
       <r>    -4.7643     0.1058     1.6875 </r>
       <r>    -4.7044     3.2741     1.8838 </r>
       <r>    -4.6444     2.8167     2.0527 </r>
       <r>    -4.5845     1.9046     2.1670 </r>
       <r>    -4.5245     1.4058     2.2513 </r>
       <r>    -4.4646     3.1165     2.4381 </r>
       <r>    -4.4047     2.1937     2.5697 </r>
       <r>    -4.3447     2.4535     2.7168 </r>
       <r>    -4.2848     0.0269     2.7185 </r>
       <r>    -4.2248     2.3130     2.8571 </r>
       <r>    -4.1649     4.0184     3.0981 </r>
       <r>    -4.1050     3.0830     3.2830 </r>
       <r>    -4.0450     3.5133     3.4936 </r>
       <r>    -3.9851     3.8677     3.7256 </r>
       <r>    -3.9251     3.1346     3.9135 </r>
       <r>    -3.8652     2.2272     4.0471 </r>
       <r>    -3.8052     1.6684     4.1472 </r>
       <r>    -3.7453     3.5826     4.3620 </r>
       <r>    -3.6854     3.9434     4.5984 </r>
       <r>    -3.6254     4.4167     4.8634 </r>
       <r>    -3.5655     3.5062     5.0736 </r>
       <r>    -3.5055     1.8985     5.1876 </r>
       <r>    -3.4456     3.5055     5.3978 </r>
       <r>    -3.3857     1.2478     5.4728 </r>
       <r>    -3.3257     2.2769     5.6093 </r>
       <r>    -3.2658     4.4981     5.8790 </r>
       <r>    -3.2058     4.8125     6.1676 </r>
       <r>    -3.1459     3.9319     6.4034 </r>
       <r>    -3.0860     1.2947     6.4811 </r>
       <r>    -3.0260     2.6615     6.6408 </r>
       <r>    -2.9661     2.3904     6.7841 </r>
       <r>    -2.9061     0.8644     6.8359 </r>
       <r>    -2.8462     0.7652     6.8819 </r>
       <r>    -2.7862     1.6698     6.9820 </r>
       <r>    -2.7263     1.6243     7.0793 </r>
       <r>    -2.6664     1.6795     7.1801 </r>
       <r>    -2.6064     2.7108     7.3426 </r>
       <r>    -2.5465     2.7853     7.5096 </r>
       <r>    -2.4865     2.4815     7.6584 </r>
       <r>    -2.4266     2.3586     7.7998 </r>
       <r>    -2.3667     1.9515     7.9168 </r>
       <r>    -2.3067     1.1549     7.9861 </r>
       <r>    -2.2468     0.2316     8.0000 </r>
       <r>    -2.1868     0.0000     8.0000 </r>
       <r>    -2.1269     0.0000     8.0000 </r>
       <r>    -2.0669     0.0000     8.0000 </r>
       <r>    -2.0070     0.0000     8.0000 </r>
       <r>    -1.9471     0.0000     8.0000 </r>
       <r>    -1.8871     0.0000     8.0000 </r>
       <r>    -1.8272     0.1312     8.0079 </r>
       <r>    -1.7672     0.6677     8.0479 </r>
       <r>    -1.7073     1.5670     8.1418 </r>
       <r>    -1.6474     2.3237     8.2812 </r>
       <r>    -1.5874     2.0524     8.4043 </r>
       <r>    -1.5275     1.6986     8.5062 </r>
       <r>    -1.4675     4.1782     8.7567 </r>
       <r>    -1.4076     2.4126     8.9014 </r>
       <r>    -1.3476     1.5339     8.9934 </r>
       <r>    -1.2877     2.5236     9.1447 </r>
       <r>    -1.2278     2.5498     9.2975 </r>
       <r>    -1.1678     2.5571     9.4508 </r>
       <r>    -1.1079     4.3212     9.7099 </r>
       <r>    -1.0479     5.0578    10.0132 </r>
       <r>    -0.9880     3.9436    10.2497 </r>
       <r>    -0.9281     5.4058    10.5738 </r>
       <r>    -0.8681     4.8508    10.8648 </r>
       <r>    -0.8082     4.0919    11.1101 </r>
       <r>    -0.7482     3.7760    11.3366 </r>
       <r>    -0.6883     2.6003    11.4926 </r>
       <r>    -0.6283     3.0724    11.6768 </r>
       <r>    -0.5684     4.4275    11.9422 </r>
       <r>    -0.5085     2.0311    12.0641 </r>
       <r>    -0.4485     1.7871    12.1713 </r>
       <r>    -0.3886     2.4276    12.3169 </r>
       <r>    -0.3286     3.2892    12.5141 </r>
       <r>    -0.2687     1.8119    12.6227 </r>
       <r>    -0.2088     1.0339    12.6848 </r>
       <r>    -0.1488     0.5600    12.7184 </r>
       <r>    -0.0889     0.4909    12.7478 </r>
       <r>    -0.0289     1.8006    12.8558 </r>
       <r>     0.0310     2.6000    13.0117 </r>
       <r>     0.0910     1.9319    13.1275 </r>
       <r>     0.1509     3.3189    13.3265 </r>
       <r>     0.2108     2.4184    13.4715 </r>
       <r>     0.2708     2.2805    13.6083 </r>
       <r>     0.3307     0.7978    13.6562 </r>
       <r>     0.3907     0.4451    13.6829 </r>
       <r>     0.4506     1.0682    13.7469 </r>
       <r>     0.5105     0.5146    13.7778 </r>
       <r>     0.5705     1.5872    13.8729 </r>
       <r>     0.6304     1.5052    13.9632 </r>
       <r>     0.6904     2.0989    14.0891 </r>
       <r>     0.7503     2.8485    14.2599 </r>
       <r>     0.8103     0.9301    14.3157 </r>
       <r>     0.8702     0.4672    14.3437 </r>
       <r>     0.9301     0.0000    14.3438 </r>
       <r>     0.9901     0.1466    14.3525 </r>
       <r>     1.0500     1.0772    14.4171 </r>
       <r>     1.1100     0.3366    14.4373 </r>
       <r>     1.1699     1.0762    14.5018 </r>
       <r>     1.2298     1.7102    14.6043 </r>
       <r>     1.2898     0.8860    14.6575 </r>
       <r>     1.3497     2.4017    14.8015 </r>
       <r>     1.4097     3.6769    15.0219 </r>
       <r>     1.4696     4.9254    15.3172 </r>
       <r>     1.5296     4.5036    15.5873 </r>
       <r>     1.5895     1.8948    15.7010 </r>
       <r>     1.6494     2.9532    15.8781 </r>
       <r>     1.7094     4.5096    16.1485 </r>
       <r>     1.7693     4.9842    16.4474 </r>
       <r>     1.8293     5.0021    16.7474 </r>
       <r>     1.8892     3.4492    16.9543 </r>
       <r>     1.9491     5.5746    17.2885 </r>
       <r>     2.0091     4.9223    17.5836 </r>
       <r>     2.0690     4.2058    17.8359 </r>
       <r>     2.1290     3.1594    18.0254 </r>
       <r>     2.1889     4.5071    18.2957 </r>
       <r>     2.2489     3.9042    18.5298 </r>
       <r>     2.3088     4.8223    18.8189 </r>
       <r>     2.3687     4.8419    19.1092 </r>
       <r>     2.4287     3.2576    19.3046 </r>
       <r>     2.4886     2.4992    19.4545 </r>
       <r>     2.5486     5.3747    19.7767 </r>
       <r>     2.6085     5.5176    20.1076 </r>
       <r>     2.6684     6.7117    20.5100 </r>
       <r>     2.7284     4.8792    20.8026 </r>
       <r>     2.7883     6.0536    21.1658 </r>
       <r>     2.8483     6.9412    21.5819 </r>
       <r>     2.9082     4.4313    21.8477 </r>
       <r>     2.9682     3.8182    22.0767 </r>
       <r>     3.0281     6.4151    22.4614 </r>
       <r>     3.0880     5.7681    22.8074 </r>
       <r>     3.1480     8.0571    23.2905 </r>
       <r>     3.2079     6.5098    23.6809 </r>
       <r>     3.2679     4.5084    23.9513 </r>
       <r>     3.3278     5.0167    24.2521 </r>
       <r>     3.3877     3.3589    24.4536 </r>
       <r>     3.4477     5.9686    24.8114 </r>
       <r>     3.5076     5.9598    25.1688 </r>
       <r>     3.5676     7.4280    25.6142 </r>
       <r>     3.6275     7.2219    26.0473 </r>
       <r>     3.6875     7.5123    26.4977 </r>
       <r>     3.7474     3.1596    26.6873 </r>
       <r>     3.8073     3.7092    26.9098 </r>
       <r>     3.8673     3.5063    27.1202 </r>
       <r>     3.9272     4.0363    27.3622 </r>
       <r>     3.9872     4.5864    27.6372 </r>
       <r>     4.0471     4.3960    27.9009 </r>
       <r>     4.1070     6.3349    28.2807 </r>
       <r>     4.1670     6.5809    28.6752 </r>
       <r>     4.2269     5.1029    28.9812 </r>
       <r>     4.2869     4.4108    29.2457 </r>
       <r>     4.3468     3.9278    29.4813 </r>
       <r>     4.4068     2.5156    29.6322 </r>
       <r>     4.4667     3.1419    29.8205 </r>
       <r>     4.5266     3.8900    30.0538 </r>
       <r>     4.5866     4.7181    30.3367 </r>
       <r>     4.6465     2.2692    30.4729 </r>
       <r>     4.7065     4.4238    30.7381 </r>
       <r>     4.7664     3.2044    30.9303 </r>
       <r>     4.8263     2.5018    31.0804 </r>
       <r>     4.8863     1.4257    31.1659 </r>
       <r>     4.9462     1.7334    31.2698 </r>
       <r>     5.0062     1.8236    31.3792 </r>
       <r>     5.0661     1.3013    31.4572 </r>
       <r>     5.1261     1.5078    31.5476 </r>
       <r>     5.1860     1.5052    31.6378 </r>
       <r>     5.2459     1.1471    31.7066 </r>
       <r>     5.3059     1.6888    31.8078 </r>
       <r>     5.3658     0.8809    31.8606 </r>
       <r>     5.4258     0.2394    31.8750 </r>
       <r>     5.4857     0.9146    31.9298 </r>
       <r>     5.5456    -0.0084    31.9293 </r>
       <r>     5.6056     0.7941    31.9769 </r>
       <r>     5.6655    -0.0067    31.9766 </r>
       <r>     5.7255     0.4012    32.0006 </r>
       <r>     5.7854    -0.0102    32.0000 </r>
       <r>     5.8454     0.0000    32.0000 </r>
       <r>     5.9053     0.0000    32.0000 </r>
       <r>     5.9652     0.0000    32.0000 </r>
       <r>     6.0252     0.0000    32.0000 </r>
       <r>     6.0851     0.0000    32.0000 </r>
       <r>     6.1451     0.0000    32.0000 </r>
       <r>     6.2050     0.1298    32.0078 </r>
       <r>     6.2649     0.1439    32.0164 </r>
       <r>     6.3249     0.7783    32.0631 </r>
       <r>     6.3848     1.0202    32.1242 </r>
       <r>     6.4448     0.8539    32.1754 </r>
       <r>     6.5047     1.3254    32.2549 </r>
       <r>     6.5647     0.8859    32.3081 </r>
       <r>     6.6246     0.7151    32.3509 </r>
       <r>     6.6845     1.3064    32.4293 </r>
       <r>     6.7445     2.3927    32.5727 </r>
       <r>     6.8044     2.9676    32.7506 </r>
       <r>     6.8644     1.3924    32.8341 </r>
       <r>     6.9243     1.9371    32.9502 </r>
       <r>     6.9842     1.7406    33.0546 </r>
       <r>     7.0442     2.8585    33.2260 </r>
       <r>     7.1041     4.7515    33.5108 </r>
       <r>     7.1641     3.8766    33.7433 </r>
       <r>     7.2240     2.0488    33.8662 </r>
       <r>     7.2839     1.9594    33.9836 </r>
       <r>     7.3439     3.0518    34.1666 </r>
       <r>     7.4038     3.8609    34.3981 </r>
       <r>     7.4638     5.0562    34.7013 </r>
       <r>     7.5237     3.9274    34.9369 </r>
       <r>     7.5837     1.7924    35.0444 </r>
       <r>     7.6436     5.1581    35.3536 </r>
       <r>     7.7035     8.1922    35.8447 </r>
       <r>     7.7635     7.7567    36.3099 </r>
       <r>     7.8234     7.6163    36.7666 </r>
       <r>     7.8834     6.4761    37.1549 </r>
       <r>     7.9433     6.3675    37.5367 </r>
       <r>     8.0032     3.4691    37.7448 </r>
       <r>     8.0632     4.1775    37.9952 </r>
       <r>     8.1231     5.7990    38.3430 </r>
       <r>     8.1831     5.6832    38.6839 </r>
       <r>     8.2430     5.5164    39.0147 </r>
       <r>     8.3030     6.8250    39.4239 </r>
       <r>     8.3629     4.6870    39.7050 </r>
       <r>     8.4228     3.7145    39.9278 </r>
       <r>     8.4828     2.7751    40.0941 </r>
       <r>     8.5427     4.6214    40.3712 </r>
       <r>     8.6027     3.9614    40.6088 </r>
       <r>     8.6626     3.9991    40.8485 </r>
       <r>     8.7225     4.0124    41.0891 </r>
       <r>     8.7825     6.5355    41.4809 </r>
       <r>     8.8424     7.6866    41.9418 </r>
       <r>     8.9024    10.3707    42.5636 </r>
       <r>     8.9623     8.3730    43.0657 </r>
       <r>     9.0223     5.8739    43.4180 </r>
       <r>     9.0822     4.8481    43.7088 </r>
       <r>     9.1421     4.9269    44.0041 </r>
       <r>     9.2021     5.3530    44.3251 </r>
       <r>     9.2620     5.3351    44.6450 </r>
       <r>     9.3220     5.2641    44.9607 </r>
       <r>     9.3819     5.1113    45.2671 </r>
       <r>     9.4418     6.3042    45.6452 </r>
       <r>     9.5018     6.2891    46.0223 </r>
       <r>     9.5617     4.2924    46.2797 </r>
       <r>     9.6217     3.9130    46.5143 </r>
       <r>     9.6816     3.0058    46.6945 </r>
       <r>     9.7416     2.8999    46.8685 </r>
       <r>     9.8015     3.0466    47.0511 </r>
       <r>     9.8614     3.8510    47.2820 </r>
       <r>     9.9214     2.8961    47.4557 </r>
       <r>     9.9813     3.4031    47.6598 </r>
       <r>    10.0413     2.4415    47.8062 </r>
       <r>    10.1012     2.0245    47.9276 </r>
       <r>    10.1611     0.8420    47.9781 </r>
       <r>    10.2211     0.3647    48.0000 </r>
       <r>    10.2810     0.0000    48.0000 </r>
       <r>    10.3410     0.0000    48.0000 </r>
       <r>    10.4009     0.0000    48.0000 </r>
       <r>    10.4609     0.0000    48.0000 </r>
       <r>    10.5208     0.0000    48.0000 </r>
       <r>    10.5807     0.0000    48.0000 </r>
       <r>    10.6407     0.0000    48.0000 </r>
       <r>    10.7006     0.0000    48.0000 </r>
       <r>    10.7606     0.0000    48.0000 </r>
       <r>    10.8205     0.0000    48.0000 </r>
       <r>    10.8804     0.0000    48.0000 </r>
       <r>    10.9404     0.0000    48.0000 </r>
       <r>    11.0003     0.0000    48.0000 </r>
      </set>
     </set>
    </array>
   </total>
  </dos>
 </calculation>
 <structure name="finalpos" >
  <crystal>
   <varray name="basis" >
    <v>       5.46906415       0.00000000       0.00000000 </v>
    <v>       0.00000000       5.46906415       0.00000000 </v>
    <v>       0.00000000       0.00000000       5.46906415 </v>
   </varray>
   <i name="volume">    163.58333295 </i>
   <varray name="rec_basis" >
    <v>       0.18284664       0.00000000       0.00000000 </v>
    <v>       0.00000000       0.18284664       0.00000000 </v>
    <v>       0.00000000       0.00000000       0.18284664 </v>
   </varray>
  </crystal>
  <varray name="positions" >
   <v>       0.12831556       0.00266847       0.07617865 </v>
   <v>       0.38702536       0.24531076       0.31732503 </v>
   <v>       0.64810436       0.50900504       0.09504041 </v>
   <v>       0.88728293       0.75704784       0.35693897 </v>
   <v>       0.65168852       0.00997967       0.58561844 </v>
   <v>       0.90169955       0.26802287       0.85561314 </v>
   <v>       0.16408759       0.49446484       0.58759684 </v>
   <v>       0.39166488       0.74976735       0.83947666 </v>
  </varray>
 </structure>
</modeling>
