<?xml version="1.0" encoding="ISO-8859-1"?>
<modeling>
 <generator>
  <i name="program" type="string">vasp </i>
  <i name="version" type="string">5.4.1  </i>
  <i name="subversion" type="string">24Jun15 (build Jul  8 2015 13:29:37) complex                          parallel </i>
  <i name="platform" type="string">FX10FRT </i>
  <i name="date" type="string">2016 02 20 </i>
  <i name="time" type="string">07:01:39 </i>
 </generator>
 <incar>
  <i type="string" name="PREC">accurate</i>
  <i type="string" name="ALGO"> Normal</i>
  <i type="int" name="ISPIN">     1</i>
  <i type="int" name="IBRION">    -1</i>
  <i name="EDIFF">      0.00010000</i>
  <i type="int" name="NSW">     0</i>
  <i type="int" name="ISIF">     2</i>
  <i name="ENCUT">    400.00000000</i>
  <i type="int" name="ISMEAR">     2</i>
  <i name="SIGMA">      0.10000000</i>
  <i type="int" name="NWRITE">     1</i>
  <v type="int" name="KPOINT_BSE">    -1     0     0     0</v>
 </incar>
 <kpoints>
  <generation param="Monkhorst-Pack">
   <v type="int" name="divisions">      16       16       16 </v>
   <v name="usershift">      0.00000000       0.00000000       0.00000000 </v>
   <v name="genvec1">      0.06250000       0.00000000       0.00000000 </v>
   <v name="genvec2">      0.00000000       0.06250000       0.00000000 </v>
   <v name="genvec3">      0.00000000       0.00000000       0.06250000 </v>
   <v name="shift">      0.50000000       0.50000000       0.50000000 </v>
  </generation>
  <varray name="kpointlist" >
   <v>       0.03125000       0.03125000       0.03125000 </v>
   <v>       0.09375000       0.03125000       0.03125000 </v>
   <v>       0.15625000       0.03125000       0.03125000 </v>
   <v>       0.21875000       0.03125000       0.03125000 </v>
   <v>       0.28125000       0.03125000       0.03125000 </v>
   <v>       0.34375000       0.03125000       0.03125000 </v>
   <v>       0.40625000       0.03125000       0.03125000 </v>
   <v>       0.46875000       0.03125000       0.03125000 </v>
   <v>       0.09375000       0.09375000       0.03125000 </v>
   <v>       0.15625000       0.09375000       0.03125000 </v>
   <v>       0.21875000       0.09375000       0.03125000 </v>
   <v>       0.28125000       0.09375000       0.03125000 </v>
   <v>       0.34375000       0.09375000       0.03125000 </v>
   <v>       0.40625000       0.09375000       0.03125000 </v>
   <v>       0.46875000       0.09375000       0.03125000 </v>
   <v>       0.15625000       0.15625000       0.03125000 </v>
   <v>       0.21875000       0.15625000       0.03125000 </v>
   <v>       0.28125000       0.15625000       0.03125000 </v>
   <v>       0.34375000       0.15625000       0.03125000 </v>
   <v>       0.40625000       0.15625000       0.03125000 </v>
   <v>       0.46875000       0.15625000       0.03125000 </v>
   <v>       0.21875000       0.21875000       0.03125000 </v>
   <v>       0.28125000       0.21875000       0.03125000 </v>
   <v>       0.34375000       0.21875000       0.03125000 </v>
   <v>       0.40625000       0.21875000       0.03125000 </v>
   <v>       0.46875000       0.21875000       0.03125000 </v>
   <v>       0.28125000       0.28125000       0.03125000 </v>
   <v>       0.34375000       0.28125000       0.03125000 </v>
   <v>       0.40625000       0.28125000       0.03125000 </v>
   <v>       0.46875000       0.28125000       0.03125000 </v>
   <v>       0.34375000       0.34375000       0.03125000 </v>
   <v>       0.40625000       0.34375000       0.03125000 </v>
   <v>       0.46875000       0.34375000       0.03125000 </v>
   <v>       0.40625000       0.40625000       0.03125000 </v>
   <v>       0.46875000       0.40625000       0.03125000 </v>
   <v>       0.46875000       0.46875000       0.03125000 </v>
   <v>       0.09375000       0.09375000       0.09375000 </v>
   <v>       0.15625000       0.09375000       0.09375000 </v>
   <v>       0.21875000       0.09375000       0.09375000 </v>
   <v>       0.28125000       0.09375000       0.09375000 </v>
   <v>       0.34375000       0.09375000       0.09375000 </v>
   <v>       0.40625000       0.09375000       0.09375000 </v>
   <v>       0.46875000       0.09375000       0.09375000 </v>
   <v>       0.15625000       0.15625000       0.09375000 </v>
   <v>       0.21875000       0.15625000       0.09375000 </v>
   <v>       0.28125000       0.15625000       0.09375000 </v>
   <v>       0.34375000       0.15625000       0.09375000 </v>
   <v>       0.40625000       0.15625000       0.09375000 </v>
   <v>       0.46875000       0.15625000       0.09375000 </v>
   <v>       0.21875000       0.21875000       0.09375000 </v>
   <v>       0.28125000       0.21875000       0.09375000 </v>
   <v>       0.34375000       0.21875000       0.09375000 </v>
   <v>       0.40625000       0.21875000       0.09375000 </v>
   <v>       0.46875000       0.21875000       0.09375000 </v>
   <v>       0.28125000       0.28125000       0.09375000 </v>
   <v>       0.34375000       0.28125000       0.09375000 </v>
   <v>       0.40625000       0.28125000       0.09375000 </v>
   <v>       0.46875000       0.28125000       0.09375000 </v>
   <v>       0.34375000       0.34375000       0.09375000 </v>
   <v>       0.40625000       0.34375000       0.09375000 </v>
   <v>       0.46875000       0.34375000       0.09375000 </v>
   <v>       0.40625000       0.40625000       0.09375000 </v>
   <v>       0.46875000       0.40625000       0.09375000 </v>
   <v>       0.46875000       0.46875000       0.09375000 </v>
   <v>       0.15625000       0.15625000       0.15625000 </v>
   <v>       0.21875000       0.15625000       0.15625000 </v>
   <v>       0.28125000       0.15625000       0.15625000 </v>
   <v>       0.34375000       0.15625000       0.15625000 </v>
   <v>       0.40625000       0.15625000       0.15625000 </v>
   <v>       0.46875000       0.15625000       0.15625000 </v>
   <v>       0.21875000       0.21875000       0.15625000 </v>
   <v>       0.28125000       0.21875000       0.15625000 </v>
   <v>       0.34375000       0.21875000       0.15625000 </v>
   <v>       0.40625000       0.21875000       0.15625000 </v>
   <v>       0.46875000       0.21875000       0.15625000 </v>
   <v>       0.28125000       0.28125000       0.15625000 </v>
   <v>       0.34375000       0.28125000       0.15625000 </v>
   <v>       0.40625000       0.28125000       0.15625000 </v>
   <v>       0.46875000       0.28125000       0.15625000 </v>
   <v>       0.34375000       0.34375000       0.15625000 </v>
   <v>       0.40625000       0.34375000       0.15625000 </v>
   <v>       0.46875000       0.34375000       0.15625000 </v>
   <v>       0.40625000       0.40625000       0.15625000 </v>
   <v>       0.46875000       0.40625000       0.15625000 </v>
   <v>       0.46875000       0.46875000       0.15625000 </v>
   <v>       0.21875000       0.21875000       0.21875000 </v>
   <v>       0.28125000       0.21875000       0.21875000 </v>
   <v>       0.34375000       0.21875000       0.21875000 </v>
   <v>       0.40625000       0.21875000       0.21875000 </v>
   <v>       0.46875000       0.21875000       0.21875000 </v>
   <v>       0.28125000       0.28125000       0.21875000 </v>
   <v>       0.34375000       0.28125000       0.21875000 </v>
   <v>       0.40625000       0.28125000       0.21875000 </v>
   <v>       0.46875000       0.28125000       0.21875000 </v>
   <v>       0.34375000       0.34375000       0.21875000 </v>
   <v>       0.40625000       0.34375000       0.21875000 </v>
   <v>       0.46875000       0.34375000       0.21875000 </v>
   <v>       0.40625000       0.40625000       0.21875000 </v>
   <v>       0.46875000       0.40625000       0.21875000 </v>
   <v>       0.46875000       0.46875000       0.21875000 </v>
   <v>       0.28125000       0.28125000       0.28125000 </v>
   <v>       0.34375000       0.28125000       0.28125000 </v>
   <v>       0.40625000       0.28125000       0.28125000 </v>
   <v>       0.46875000       0.28125000       0.28125000 </v>
   <v>       0.34375000       0.34375000       0.28125000 </v>
   <v>       0.40625000       0.34375000       0.28125000 </v>
   <v>       0.46875000       0.34375000       0.28125000 </v>
   <v>       0.40625000       0.40625000       0.28125000 </v>
   <v>       0.46875000       0.40625000       0.28125000 </v>
   <v>       0.46875000       0.46875000       0.28125000 </v>
   <v>       0.34375000       0.34375000       0.34375000 </v>
   <v>       0.40625000       0.34375000       0.34375000 </v>
   <v>       0.46875000       0.34375000       0.34375000 </v>
   <v>       0.40625000       0.40625000       0.34375000 </v>
   <v>       0.46875000       0.40625000       0.34375000 </v>
   <v>       0.46875000       0.46875000       0.34375000 </v>
   <v>       0.40625000       0.40625000       0.40625000 </v>
   <v>       0.46875000       0.40625000       0.40625000 </v>
   <v>       0.46875000       0.46875000       0.40625000 </v>
   <v>       0.46875000       0.46875000       0.46875000 </v>
  </varray>
  <varray name="weights" >
   <v>       0.00195312 </v>
   <v>       0.00585938 </v>
   <v>       0.00585938 </v>
   <v>       0.00585938 </v>
   <v>       0.00585938 </v>
   <v>       0.00585938 </v>
   <v>       0.00585938 </v>
   <v>       0.00585938 </v>
   <v>       0.00585938 </v>
   <v>       0.01171875 </v>
   <v>       0.01171875 </v>
   <v>       0.01171875 </v>
   <v>       0.01171875 </v>
   <v>       0.01171875 </v>
   <v>       0.01171875 </v>
   <v>       0.00585938 </v>
   <v>       0.01171875 </v>
   <v>       0.01171875 </v>
   <v>       0.01171875 </v>
   <v>       0.01171875 </v>
   <v>       0.01171875 </v>
   <v>       0.00585938 </v>
   <v>       0.01171875 </v>
   <v>       0.01171875 </v>
   <v>       0.01171875 </v>
   <v>       0.01171875 </v>
   <v>       0.00585938 </v>
   <v>       0.01171875 </v>
   <v>       0.01171875 </v>
   <v>       0.01171875 </v>
   <v>       0.00585938 </v>
   <v>       0.01171875 </v>
   <v>       0.01171875 </v>
   <v>       0.00585938 </v>
   <v>       0.01171875 </v>
   <v>       0.00585938 </v>
   <v>       0.00195312 </v>
   <v>       0.00585938 </v>
   <v>       0.00585938 </v>
   <v>       0.00585938 </v>
   <v>       0.00585938 </v>
   <v>       0.00585938 </v>
   <v>       0.00585938 </v>
   <v>       0.00585938 </v>
   <v>       0.01171875 </v>
   <v>       0.01171875 </v>
   <v>       0.01171875 </v>
   <v>       0.01171875 </v>
   <v>       0.01171875 </v>
   <v>       0.00585938 </v>
   <v>       0.01171875 </v>
   <v>       0.01171875 </v>
   <v>       0.01171875 </v>
   <v>       0.01171875 </v>
   <v>       0.00585938 </v>
   <v>       0.01171875 </v>
   <v>       0.01171875 </v>
   <v>       0.01171875 </v>
   <v>       0.00585938 </v>
   <v>       0.01171875 </v>
   <v>       0.01171875 </v>
   <v>       0.00585938 </v>
   <v>       0.01171875 </v>
   <v>       0.00585938 </v>
   <v>       0.00195312 </v>
   <v>       0.00585938 </v>
   <v>       0.00585938 </v>
   <v>       0.00585938 </v>
   <v>       0.00585938 </v>
   <v>       0.00585938 </v>
   <v>       0.00585938 </v>
   <v>       0.01171875 </v>
   <v>       0.01171875 </v>
   <v>       0.01171875 </v>
   <v>       0.01171875 </v>
   <v>       0.00585938 </v>
   <v>       0.01171875 </v>
   <v>       0.01171875 </v>
   <v>       0.01171875 </v>
   <v>       0.00585938 </v>
   <v>       0.01171875 </v>
   <v>       0.01171875 </v>
   <v>       0.00585938 </v>
   <v>       0.01171875 </v>
   <v>       0.00585938 </v>
   <v>       0.00195312 </v>
   <v>       0.00585938 </v>
   <v>       0.00585938 </v>
   <v>       0.00585938 </v>
   <v>       0.00585938 </v>
   <v>       0.00585938 </v>
   <v>       0.01171875 </v>
   <v>       0.01171875 </v>
   <v>       0.01171875 </v>
   <v>       0.00585938 </v>
   <v>       0.01171875 </v>
   <v>       0.01171875 </v>
   <v>       0.00585938 </v>
   <v>       0.01171875 </v>
   <v>       0.00585938 </v>
   <v>       0.00195312 </v>
   <v>       0.00585938 </v>
   <v>       0.00585938 </v>
   <v>       0.00585938 </v>
   <v>       0.00585938 </v>
   <v>       0.01171875 </v>
   <v>       0.01171875 </v>
   <v>       0.00585938 </v>
   <v>       0.01171875 </v>
   <v>       0.00585938 </v>
   <v>       0.00195312 </v>
   <v>       0.00585938 </v>
   <v>       0.00585938 </v>
   <v>       0.00585938 </v>
   <v>       0.01171875 </v>
   <v>       0.00585938 </v>
   <v>       0.00195312 </v>
   <v>       0.00585938 </v>
   <v>       0.00585938 </v>
   <v>       0.00195312 </v>
  </varray>
 </kpoints>
 <parameters>
  <separator name="general" >
   <i type="string" name="SYSTEM">unknown system</i>
   <i type="logical" name="LCOMPAT"> F  </i>
  </separator>
  <separator name="electronic" >
   <i type="string" name="PREC">accura</i>
   <i name="ENMAX">    400.00000000</i>
   <i name="ENAUG">    322.06900000</i>
   <i name="EDIFF">      0.00010000</i>
   <i type="int" name="IALGO">    38</i>
   <i type="int" name="IWAVPR">    10</i>
   <i type="int" name="NBANDS">     8</i>
   <i name="NELECT">      8.00000000</i>
   <i type="int" name="TURBO">     0</i>
   <i type="int" name="IRESTART">     0</i>
   <i type="int" name="NREBOOT">     0</i>
   <i type="int" name="NMIN">     0</i>
   <i name="EREF">      0.00000000</i>
   <separator name="electronic smearing" >
    <i type="int" name="ISMEAR">     2</i>
    <i name="SIGMA">      0.10000000</i>
    <i name="KSPACING">      0.50000000</i>
    <i type="logical" name="KGAMMA"> T  </i>
   </separator>
   <separator name="electronic projectors" >
    <i type="logical" name="LREAL"> F  </i>
    <v name="ROPT">      0.00000000</v>
    <i type="int" name="LMAXPAW">  -100</i>
    <i type="int" name="LMAXMIX">     2</i>
    <i type="logical" name="NLSPLINE"> F  </i>
   </separator>
   <separator name="electronic startup" >
    <i type="int" name="ISTART">     0</i>
    <i type="int" name="ICHARG">     2</i>
    <i type="int" name="INIWAV">     1</i>
   </separator>
   <separator name="electronic spin" >
    <i type="int" name="ISPIN">     1</i>
    <i type="logical" name="LNONCOLLINEAR"> F  </i>
    <v name="MAGMOM">      1.00000000      1.00000000</v>
    <i name="NUPDOWN">     -1.00000000</i>
    <i type="logical" name="LSORBIT"> F  </i>
    <v name="SAXIS">      0.00000000      0.00000000      1.00000000</v>
    <i type="logical" name="LSPIRAL"> F  </i>
    <v name="QSPIRAL">      0.00000000      0.00000000      0.00000000</v>
    <i type="logical" name="LZEROZ"> F  </i>
   </separator>
   <separator name="electronic exchange-correlation" >
    <i type="logical" name="LASPH"> F  </i>
    <i type="logical" name="LMETAGGA"> F  </i>
   </separator>
   <separator name="electronic convergence" >
    <i type="int" name="NELM">    60</i>
    <i type="int" name="NELMDL">    -5</i>
    <i type="int" name="NELMIN">     2</i>
    <i name="ENINI">    400.00000000</i>
    <separator name="electronic convergence detail" >
     <i type="logical" name="LDIAG"> T  </i>
     <i type="logical" name="LSUBROT"> F  </i>
     <i name="WEIMIN">      0.00000000</i>
     <i name="EBREAK">      0.00000313</i>
     <i name="DEPER">      0.30000000</i>
     <i type="int" name="NRMM">     4</i>
     <i name="TIME">      0.40000000</i>
    </separator>
   </separator>
   <separator name="electronic mixer" >
    <i name="AMIX">      0.40000000</i>
    <i name="BMIX">      1.00000000</i>
    <i name="AMIN">      0.10000000</i>
    <i name="AMIX_MAG">      1.60000000</i>
    <i name="BMIX_MAG">      1.00000000</i>
    <separator name="electronic mixer details" >
     <i type="int" name="IMIX">     4</i>
     <i type="logical" name="MIXFIRST"> F  </i>
     <i type="int" name="MAXMIX">   -45</i>
     <i name="WC">    100.00000000</i>
     <i type="int" name="INIMIX">     1</i>
     <i type="int" name="MIXPRE">     1</i>
     <i type="int" name="MREMOVE">     5</i>
    </separator>
   </separator>
   <separator name="electronic dipolcorrection" >
    <i type="logical" name="LDIPOL"> F  </i>
    <i type="logical" name="LMONO"> F  </i>
    <i type="int" name="IDIPOL">     0</i>
    <i name="EPSILON">      1.00000000</i>
    <v name="DIPOL">   -100.00000000   -100.00000000   -100.00000000</v>
    <i name="EFIELD">      0.00000000</i>
   </separator>
  </separator>
  <separator name="grids" >
   <i type="int" name="NGX">    20</i>
   <i type="int" name="NGY">    20</i>
   <i type="int" name="NGZ">    20</i>
   <i type="int" name="NGXF">    40</i>
   <i type="int" name="NGYF">    40</i>
   <i type="int" name="NGZF">    40</i>
   <i type="logical" name="ADDGRID"> F  </i>
  </separator>
  <separator name="ionic" >
   <i type="int" name="NSW">     0</i>
   <i type="int" name="IBRION">    -1</i>
   <i type="int" name="ISIF">     2</i>
   <i name="PSTRESS">      0.00000000</i>
   <i name="EDIFFG">      0.00100000</i>
   <i type="int" name="NFREE">     0</i>
   <i name="POTIM">      0.50000000</i>
   <i name="SMASS">     -3.00000000</i>
   <i name="SCALEE">      1.00000000</i>
  </separator>
  <separator name="ionic md" >
   <i name="TEBEG">      0.00010000</i>
   <i name="TEEND">      0.00010000</i>
   <i type="int" name="NBLOCK">     1</i>
   <i type="int" name="KBLOCK">     1</i>
   <i type="int" name="NPACO">   256</i>
   <i name="APACO">     16.00000000</i>
  </separator>
  <separator name="symmetry" >
   <i type="int" name="ISYM">     2</i>
   <i name="SYMPREC">      0.00001000</i>
  </separator>
  <separator name="dos" >
   <i type="logical" name="LORBIT"> F  </i>
   <v name="RWIGS">     -1.00000000</v>
   <i type="int" name="NEDOS">   301</i>
   <i name="EMIN">     10.00000000</i>
   <i name="EMAX">    -10.00000000</i>
   <i name="EFERMI">      0.00000000</i>
  </separator>
  <separator name="writing" >
   <i type="int" name="NWRITE">     1</i>
   <i type="logical" name="LWAVE"> T  </i>
   <i type="logical" name="LCHARG"> T  </i>
   <i type="logical" name="LPARD"> F  </i>
   <i type="logical" name="LVTOT"> F  </i>
   <i type="logical" name="LVHAR"> F  </i>
   <i type="logical" name="LELF"> F  </i>
   <i type="logical" name="LOPTICS"> F  </i>
   <v name="STM">      0.00000000      0.00000000      0.00000000      0.00000000      0.00000000      0.00000000      0.00000000</v>
  </separator>
  <separator name="performance" >
   <i type="int" name="NPAR">     8</i>
   <i type="int" name="NSIM">     4</i>
   <i type="int" name="NBLK">    -1</i>
   <i type="logical" name="LPLANE"> T  </i>
   <i type="logical" name="LSCALAPACK"> T  </i>
   <i type="logical" name="LSCAAWARE"> F  </i>
   <i type="logical" name="LSCALU"> F  </i>
   <i type="logical" name="LASYNC"> F  </i>
   <i type="logical" name="LORBITALREAL"> F  </i>
  </separator>
  <separator name="miscellaneous" >
   <i type="int" name="IDIOT">     3</i>
   <i type="logical" name="LMUSIC"> F  </i>
   <v name="POMASS">     28.08500000</v>
   <v name="DARWINR">      0.00000000</v>
   <v name="DARWINV">      1.00000000</v>
   <i type="logical" name="LCORR"> T  </i>
  </separator>
  <i type="logical" name="GGA_COMPAT"> T  </i>
  <i type="logical" name="LBERRY"> F  </i>
  <i type="int" name="ICORELEVEL">     0</i>
  <i type="logical" name="LDAU"> F  </i>
  <i type="int" name="I_CONSTRAINED_M">     0</i>
  <separator name="electronic exchange-correlation" >
   <i type="string" name="GGA">--</i>
   <i type="int" name="VOSKOWN">     0</i>
   <i type="logical" name="LHFCALC"> F  </i>
   <i type="string" name="PRECFOCK"></i>
   <i type="logical" name="LSYMGRAD"> F  </i>
   <i type="logical" name="LHFONE"> F  </i>
   <i type="logical" name="LRHFCALC"> F  </i>
   <i type="logical" name="LTHOMAS"> F  </i>
   <i type="logical" name="LMODELHF"> F  </i>
   <i name="ENCUT4O">     -1.00000000</i>
   <i type="int" name="EXXOEP">     0</i>
   <i type="int" name="FOURORBIT">     0</i>
   <i name="AEXX">      0.00000000</i>
   <i name="HFALPHA">      0.00000000</i>
   <i name="MCALPHA">      0.00000000</i>
   <i name="ALDAX">      1.00000000</i>
   <i name="AGGAX">      1.00000000</i>
   <i name="ALDAC">      1.00000000</i>
   <i name="AGGAC">      1.00000000</i>
   <i type="int" name="NKREDX">     1</i>
   <i type="int" name="NKREDY">     1</i>
   <i type="int" name="NKREDZ">     1</i>
   <i type="logical" name="SHIFTRED"> F  </i>
   <i type="logical" name="ODDONLY"> F  </i>
   <i type="logical" name="EVENONLY"> F  </i>
   <i type="int" name="LMAXFOCK">     0</i>
   <i type="int" name="NMAXFOCKAE">     0</i>
   <i type="logical" name="LFOCKAEDFT"> F  </i>
   <i name="HFSCREEN">      0.00000000</i>
   <i name="HFSCREENC">      0.00000000</i>
   <i type="int" name="NBANDSGWLOW">     0</i>
  </separator>
  <separator name="vdW DFT" >
   <i type="logical" name="LUSE_VDW"> F  </i>
   <i name="Zab_VDW">     -0.84910000</i>
   <i name="PARAM1">      0.12340000</i>
   <i name="PARAM2">      1.00000000</i>
   <i name="PARAM3">      0.00000000</i>
  </separator>
  <separator name="model GW" >
   <i type="int" name="MODEL_GW">     0</i>
   <i name="MODEL_EPS0">      9.06082173</i>
   <i name="MODEL_ALPHA">      1.00000000</i>
  </separator>
  <separator name="linear response parameters" >
   <i type="logical" name="LEPSILON"> F  </i>
   <i type="logical" name="LRPA"> F  </i>
   <i type="logical" name="LNABLA"> F  </i>
   <i type="logical" name="LVEL"> F  </i>
   <i type="int" name="KINTER">     0</i>
   <i name="CSHIFT">      0.10000000</i>
   <i name="OMEGAMAX">     -1.00000000</i>
   <i name="DEG_THRESHOLD">      0.00200000</i>
  </separator>
  <separator name="orbital magnetization" >
   <i type="logical" name="NUCIND"> F  </i>
   <v name="MAGPOS">      0.00000000      0.00000000      0.00000000</v>
   <i type="logical" name="LNICSALL"> T  </i>
   <i type="logical" name="ORBITALMAG"> F  </i>
   <i type="logical" name="LMAGBLOCH"> F  </i>
   <i type="logical" name="LCHIMAG"> F  </i>
   <i type="logical" name="LGAUGE"> T  </i>
   <i type="int" name="MAGATOM">     0</i>
   <v name="MAGDIPOL">      0.00000000      0.00000000      0.00000000</v>
   <v name="AVECCONST">      0.00000000      0.00000000      0.00000000</v>
  </separator>
  <separator name="response functions" >
   <i type="logical" name="LADDER"> F  </i>
   <i type="logical" name="LFXC"> F  </i>
   <i type="logical" name="LHARTREE"> T  </i>
   <i type="int" name="IBSE">     0</i>
   <v type="int" name="KPOINT">    -1     0     0     0</v>
   <i type="logical" name="LTCTE"> F  </i>
   <i type="logical" name="LTETE"> F  </i>
   <i type="logical" name="LTRIPLET"> F  </i>
   <i type="logical" name="LFXCEPS"> F  </i>
   <i type="logical" name="LFXHEG"> F  </i>
   <i type="int" name="NATURALO">     0</i>
   <i type="logical" name="L2ORDER"> F  </i>
   <i type="logical" name="LUSEW"> F  </i>
   <i name="ENCUTGW">     -2.00000000</i>
   <i name="ENCUTGWSOFT">     -2.00000000</i>
   <i name="ENCUTLF">     -1.00000000</i>
   <i type="int" name="LMAXMP2">    -1</i>
   <i name="SCISSOR">      0.00000000</i>
   <i type="int" name="NOMEGA">     0</i>
   <i type="int" name="NOMEGAR">     0</i>
   <i type="int" name="NBANDSGW">    -1</i>
   <i type="int" name="NBANDSO">    -1</i>
   <i type="int" name="NBANDSV">    -1</i>
   <i type="int" name="NELM">     1</i>
   <i type="int" name="NELMHF">     1</i>
   <i type="int" name="DIM">     3</i>
   <i type="int" name="ANTIRES">     0</i>
   <i name="OMEGAMAX">    -30.00000000</i>
   <i name="OMEGAMIN">    -30.00000000</i>
   <i name="OMEGATL">   -200.00000000</i>
   <i type="int" name="OMEGAGRID">     0</i>
   <i name="CSHIFT">     -0.10000000</i>
   <i type="logical" name="SELFENERGY"> F  </i>
   <i type="logical" name="LSPECTRAL"> F  </i>
   <i type="logical" name="LSPECTRALGW"> F  </i>
   <i type="logical" name="LSINGLES"> F  </i>
   <i type="logical" name="LFERMIGW"> F  </i>
   <i type="logical" name="ODDONLYGW"> F  </i>
   <i type="logical" name="EVENONLYGW"> F  </i>
   <i type="int" name="NKREDLFX">     1</i>
   <i type="int" name="NKREDLFY">     1</i>
   <i type="int" name="NKREDLFZ">     1</i>
   <i type="int" name="MAXMEM">  1800</i>
   <i type="int" name="TELESCOPE">     0</i>
   <i type="int" name="TAUPAR">     1</i>
   <i type="int" name="OMEGAPAR">    -1</i>
   <i name="LAMBDA">      1.00000000</i>
  </separator>
  <separator name="External order field" >
   <i name="OFIELD_KAPPA">      0.00000000</i>
   <v name="OFIELD_K">      0.00000000      0.00000000      0.00000000</v>
   <i name="OFIELD_Q6_NEAR">      0.00000000</i>
   <i name="OFIELD_Q6_FAR">      0.00000000</i>
   <i name="OFIELD_A">      0.00000000</i>
  </separator>
 </parameters>
 <atominfo>
  <atoms>       2 </atoms>
  <types>       1 </types>
  <array name="atoms" >
   <dimension dim="1">ion</dimension>
   <field type="string">element</field>
   <field type="int">atomtype</field>
   <set>
    <rc><c>Si</c><c>   1</c></rc>
    <rc><c>Si</c><c>   1</c></rc>
   </set>
  </array>
  <array name="atomtypes" >
   <dimension dim="1">type</dimension>
   <field type="int">atomspertype</field>
   <field type="string">element</field>
   <field>mass</field>
   <field>valence</field>
   <field type="string">pseudopotential</field>
   <set>
    <rc><c>   2</c><c>Si</c><c>     28.08500000</c><c>      4.00000000</c><c>  PAW_PBE Si 05Jan2001                  </c></rc>
   </set>
  </array>
 </atominfo>
 <structure name="initialpos" >
  <crystal>
   <varray name="basis" >
    <v>       3.11421633       0.00000000       0.00000000 </v>
    <v>       0.00000000       3.11421633       0.00000000 </v>
    <v>       0.00000000       0.00000000       3.11421633 </v>
   </varray>
   <i name="volume">     30.20273909 </i>
   <varray name="rec_basis" >
    <v>       0.32110807       0.00000000       0.00000000 </v>
    <v>       0.00000000       0.32110807       0.00000000 </v>
    <v>       0.00000000       0.00000000       0.32110807 </v>
   </varray>
  </crystal>
  <varray name="positions" >
   <v>       0.00000000       0.00000000       0.00000000 </v>
   <v>       0.50000000       0.50000000       0.50000000 </v>
  </varray>
 </structure>
 <calculation>
  <scstep>
   <time name="dav">    0.36    0.40</time>
   <time name="total">    0.42    0.46</time>
   <energy>
    <i name="alphaZ">      4.45828846 </i>
    <i name="ewald">   -269.23852140 </i>
    <i name="hartreedc">     -1.32981570 </i>
    <i name="XCdc">    -17.83977573 </i>
    <i name="pawpsdc">    176.24759923 </i>
    <i name="pawaedc">   -141.06103558 </i>
    <i name="eentropy">      0.00012703 </i>
    <i name="bandstr">     44.82163615 </i>
    <i name="atom">    206.13149246 </i>
    <i name="e_fr_energy">      2.18999492 </i>
    <i name="e_wo_entrp">      2.18986789 </i>
    <i name="e_0_energy">      2.18996316 </i>
   </energy>
  </scstep>
  <scstep>
   <time name="dav">    0.53    0.53</time>
   <time name="total">    0.53    0.56</time>
   <energy>
    <i name="e_fr_energy">     -9.67971054 </i>
    <i name="e_wo_entrp">     -9.67966759 </i>
    <i name="e_0_energy">     -9.67969980 </i>
   </energy>
  </scstep>
  <scstep>
   <time name="dav">    0.50    0.50</time>
   <time name="total">    0.51    0.52</time>
   <energy>
    <i name="e_fr_energy">     -9.82478312 </i>
    <i name="e_wo_entrp">     -9.82490053 </i>
    <i name="e_0_energy">     -9.82481248 </i>
   </energy>
  </scstep>
  <scstep>
   <time name="dav">    0.54    0.55</time>
   <time name="total">    0.55    0.56</time>
   <energy>
    <i name="e_fr_energy">     -9.82516326 </i>
    <i name="e_wo_entrp">     -9.82528032 </i>
    <i name="e_0_energy">     -9.82519253 </i>
   </energy>
  </scstep>
  <scstep>
   <time name="dav">    0.47    0.49</time>
   <time name="total">    0.50    0.54</time>
   <energy>
    <i name="e_fr_energy">     -9.82516432 </i>
    <i name="e_wo_entrp">     -9.82528136 </i>
    <i name="e_0_energy">     -9.82519358 </i>
   </energy>
  </scstep>
  <scstep>
   <time name="dav">    0.45    0.45</time>
   <time name="total">    0.49    0.50</time>
   <energy>
    <i name="e_fr_energy">     -9.80454050 </i>
    <i name="e_wo_entrp">     -9.80473612 </i>
    <i name="e_0_energy">     -9.80458941 </i>
   </energy>
  </scstep>
  <scstep>
   <time name="dav">    0.43    0.43</time>
   <time name="total">    0.47    0.48</time>
   <energy>
    <i name="e_fr_energy">     -9.79306365 </i>
    <i name="e_wo_entrp">     -9.79337338 </i>
    <i name="e_0_energy">     -9.79314108 </i>
   </energy>
  </scstep>
  <scstep>
   <time name="dav">    0.50    0.49</time>
   <time name="total">    0.50    0.53</time>
   <energy>
    <i name="alphaZ">      4.45828846 </i>
    <i name="ewald">   -269.23852140 </i>
    <i name="hartreedc">     -0.97017140 </i>
    <i name="XCdc">    -17.74725912 </i>
    <i name="pawpsdc">    551.31361997 </i>
    <i name="pawaedc">   -516.14440191 </i>
    <i name="eentropy">      0.00031388 </i>
    <i name="bandstr">     32.40361752 </i>
    <i name="atom">    206.13149246 </i>
    <i name="e_fr_energy">     -9.79302154 </i>
    <i name="e_wo_entrp">     -9.79333542 </i>
    <i name="e_0_energy">     -9.79310001 </i>
   </energy>
  </scstep>
  <structure>
   <crystal>
    <varray name="basis" >
     <v>       3.11421633       0.00000000       0.00000000 </v>
     <v>       0.00000000       3.11421633       0.00000000 </v>
     <v>       0.00000000       0.00000000       3.11421633 </v>
    </varray>
    <i name="volume">     30.20273909 </i>
    <varray name="rec_basis" >
     <v>       0.32110807       0.00000000       0.00000000 </v>
     <v>       0.00000000       0.32110807       0.00000000 </v>
     <v>       0.00000000       0.00000000       0.32110807 </v>
    </varray>
   </crystal>
   <varray name="positions" >
    <v>       0.00000000       0.00000000       0.00000000 </v>
    <v>       0.50000000       0.50000000       0.50000000 </v>
   </varray>
  </structure>
  <varray name="forces" >
   <v>       0.00000000       0.00000000       0.00000000 </v>
   <v>       0.00000000       0.00000000       0.00000000 </v>
  </varray>
  <varray name="stress" >
   <v>     -27.59030986       0.00000000       0.00000000 </v>
   <v>       0.00000000     -27.59030986       0.00000000 </v>
   <v>       0.00000000       0.00000000     -27.59030986 </v>
  </varray>
  <energy>
   <i name="e_fr_energy">     -9.79302154 </i>
   <i name="e_wo_entrp">     -9.79310001 </i>
   <i name="e_0_energy">      0.00031388 </i>
  </energy>
  <time name="totalsc">    4.46    4.65</time>
  <eigenvalues>
   <array>
    <dimension dim="1">band</dimension>
    <dimension dim="2">kpoint</dimension>
    <dimension dim="3">spin</dimension>
    <field>eigene</field>
    <field>occ</field>
    <set>
     <set comment="spin 1">
      <set comment="kpoint 1">
       <r>   -4.3952    1.0000 </r>
       <r>    8.6144    1.0000 </r>
       <r>    8.7992    1.0000 </r>
       <r>    8.7992    1.0000 </r>
       <r>   10.7699    0.0000 </r>
       <r>   12.2571    0.0000 </r>
       <r>   12.2571    0.0000 </r>
       <r>   19.8115    0.0000 </r>
      </set>
      <set comment="kpoint 2">
       <r>   -4.2783    1.0000 </r>
       <r>    7.3857    1.0000 </r>
       <r>    8.8073    1.0000 </r>
       <r>    8.9055    1.0000 </r>
       <r>   11.1810    0.0000 </r>
       <r>   12.3747    0.0000 </r>
       <r>   13.4704    0.0000 </r>
       <r>   18.9241    0.0000 </r>
      </set>
      <set comment="kpoint 3">
       <r>   -4.0445    1.0000 </r>
       <r>    5.9250    1.0000 </r>
       <r>    9.0175    1.0000 </r>
       <r>    9.1181    1.0000 </r>
       <r>   11.4757    0.0000 </r>
       <r>   12.6095    0.0000 </r>
       <r>   15.2283    0.0000 </r>
       <r>   17.8131    0.0000 </r>
      </set>
      <set comment="kpoint 4">
       <r>   -3.6943    1.0000 </r>
       <r>    4.5085    1.0000 </r>
       <r>    9.3357    1.0118 </r>
       <r>    9.4367    0.9257 </r>
       <r>   11.8216    0.0000 </r>
       <r>   12.9616    0.0000 </r>
       <r>   16.6468    0.0000 </r>
       <r>   16.8224    0.0000 </r>
      </set>
      <set comment="kpoint 5">
       <r>   -3.2283    1.0000 </r>
       <r>    3.1748    1.0000 </r>
       <r>    9.7594    0.0009 </r>
       <r>    9.8608    0.0000 </r>
       <r>   12.2556    0.0000 </r>
       <r>   13.4305    0.0000 </r>
       <r>   15.5023    0.0000 </r>
       <r>   15.6515    0.0000 </r>
      </set>
      <set comment="kpoint 6">
       <r>   -2.6474    1.0000 </r>
       <r>    1.9373    1.0000 </r>
       <r>   10.2875    0.0000 </r>
       <r>   10.3898    0.0000 </r>
       <r>   12.7835    0.0000 </r>
       <r>   14.0162    0.0000 </r>
       <r>   14.4152    0.0000 </r>
       <r>   14.5471    0.0000 </r>
      </set>
      <set comment="kpoint 7">
       <r>   -1.9524    1.0000 </r>
       <r>    0.8025    1.0000 </r>
       <r>   10.9184    0.0000 </r>
       <r>   11.0226    0.0000 </r>
       <r>   13.4036    0.0000 </r>
       <r>   13.4042    0.0000 </r>
       <r>   13.5246    0.0000 </r>
       <r>   14.7180    0.0000 </r>
      </set>
      <set comment="kpoint 8">
       <r>   -1.1446    1.0000 </r>
       <r>   -0.2257    1.0000 </r>
       <r>   11.6504    0.0000 </r>
       <r>   11.7577    0.0000 </r>
       <r>   12.4803    0.0000 </r>
       <r>   12.5928    0.0000 </r>
       <r>   14.1110    0.0000 </r>
       <r>   14.8982    0.0000 </r>
      </set>
      <set comment="kpoint 9">
       <r>   -4.1614    1.0000 </r>
       <r>    7.3423    1.0000 </r>
       <r>    7.6799    1.0000 </r>
       <r>    8.9709    1.0000 </r>
       <r>   11.6651    0.0000 </r>
       <r>   13.2763    0.0000 </r>
       <r>   13.8162    0.0000 </r>
       <r>   17.9930    0.0000 </r>
      </set>
      <set comment="kpoint 10">
       <r>   -3.9277    1.0000 </r>
       <r>    6.0261    1.0000 </r>
       <r>    7.7520    1.0000 </r>
       <r>    9.1828    0.9997 </r>
       <r>   11.9695    0.0000 </r>
       <r>   13.6954    0.0000 </r>
       <r>   15.3715    0.0000 </r>
       <r>   16.8040    0.0000 </r>
      </set>
      <set comment="kpoint 11">
       <r>   -3.5778    1.0000 </r>
       <r>    4.6171    1.0000 </r>
       <r>    8.0708    1.0000 </r>
       <r>    9.5012    0.3267 </r>
       <r>   12.3199    0.0000 </r>
       <r>   14.0523    0.0000 </r>
       <r>   15.5814    0.0000 </r>
       <r>   16.8144    0.0000 </r>
      </set>
      <set comment="kpoint 12">
       <r>   -3.1121    1.0000 </r>
       <r>    3.2859    1.0000 </r>
       <r>    8.5028    1.0000 </r>
       <r>    9.9250    0.0000 </r>
       <r>   12.7600    0.0000 </r>
       <r>   14.3946    0.0000 </r>
       <r>   14.5065    0.0000 </r>
       <r>   15.6786    0.0000 </r>
      </set>
      <set comment="kpoint 13">
       <r>   -2.5314    1.0000 </r>
       <r>    2.0499    1.0000 </r>
       <r>    9.0427    1.0000 </r>
       <r>   10.4534    0.0000 </r>
       <r>   13.2740    0.0000 </r>
       <r>   13.2958    0.0000 </r>
       <r>   14.5907    0.0000 </r>
       <r>   15.0677    0.0000 </r>
      </set>
      <set comment="kpoint 14">
       <r>   -1.8369    1.0000 </r>
       <r>    0.9161    1.0000 </r>
       <r>    9.6884    0.0049 </r>
       <r>   11.0852    0.0000 </r>
       <r>   12.2355    0.0000 </r>
       <r>   13.5770    0.0000 </r>
       <r>   13.9255    0.0000 </r>
       <r>   15.7370    0.0000 </r>
      </set>
      <set comment="kpoint 15">
       <r>   -1.0296    1.0000 </r>
       <r>   -0.1113    1.0000 </r>
       <r>   10.4378    0.0000 </r>
       <r>   11.2881    0.0000 </r>
       <r>   11.8184    0.0000 </r>
       <r>   12.6505    0.0000 </r>
       <r>   14.6433    0.0000 </r>
       <r>   15.4398    0.0000 </r>
      </set>
      <set comment="kpoint 16">
       <r>   -3.6944    1.0000 </r>
       <r>    6.0672    1.0000 </r>
       <r>    6.4720    1.0000 </r>
       <r>    9.3944    1.0504 </r>
       <r>   12.2726    0.0000 </r>
       <r>   15.1323    0.0000 </r>
       <r>   15.5440    0.0000 </r>
       <r>   15.8990    0.0000 </r>
      </set>
      <set comment="kpoint 17">
       <r>   -3.3448    1.0000 </r>
       <r>    4.8279    1.0000 </r>
       <r>    6.6275    1.0000 </r>
       <r>    9.7124    0.0037 </r>
       <r>   12.6246    0.0000 </r>
       <r>   14.2737    0.0000 </r>
       <r>   15.7274    0.0000 </r>
       <r>   16.8462    0.0000 </r>
      </set>
      <set comment="kpoint 18">
       <r>   -2.8797    1.0000 </r>
       <r>    3.5068    1.0000 </r>
       <r>    7.0572    1.0000 </r>
       <r>   10.1357    0.0000 </r>
       <r>   13.0526    0.0000 </r>
       <r>   13.0684    0.0000 </r>
       <r>   15.8163    0.0000 </r>
       <r>   16.1908    0.0000 </r>
      </set>
      <set comment="kpoint 19">
       <r>   -2.2998    1.0000 </r>
       <r>    2.2744    1.0000 </r>
       <r>    7.6029    1.0000 </r>
       <r>   10.6631    0.0000 </r>
       <r>   11.9059    0.0000 </r>
       <r>   13.6099    0.0000 </r>
       <r>   14.7668    0.0000 </r>
       <r>   16.7307    0.0000 </r>
      </set>
      <set comment="kpoint 20">
       <r>   -1.6061    1.0000 </r>
       <r>    1.1429    1.0000 </r>
       <r>    8.2575    1.0000 </r>
       <r>   10.8467    0.0000 </r>
       <r>   11.2933    0.0000 </r>
       <r>   13.7698    0.0000 </r>
       <r>   14.2471    0.0000 </r>
       <r>   16.6430    0.0000 </r>
      </set>
      <set comment="kpoint 21">
       <r>   -0.7999    1.0000 </r>
       <r>    0.1171    1.0000 </r>
       <r>    9.0183    1.0000 </r>
       <r>    9.8825    0.0000 </r>
       <r>   12.0240    0.0000 </r>
       <r>   12.8516    0.0000 </r>
       <r>   14.9738    0.0000 </r>
       <r>   15.7791    0.0000 </r>
      </set>
      <set comment="kpoint 22">
       <r>   -2.9959    1.0000 </r>
       <r>    4.9666    1.0000 </r>
       <r>    5.4113    1.0000 </r>
       <r>   10.0298    0.0000 </r>
       <r>   12.9697    0.0000 </r>
       <r>   12.9765    0.0000 </r>
       <r>   16.6446    0.0000 </r>
       <r>   17.2575    0.0000 </r>
      </set>
      <set comment="kpoint 23">
       <r>   -2.5317    1.0000 </r>
       <r>    3.8294    1.0000 </r>
       <r>    5.6642    1.0000 </r>
       <r>   10.4519    0.0000 </r>
       <r>   11.7240    0.0000 </r>
       <r>   13.4195    0.0000 </r>
       <r>   15.9506    0.0000 </r>
       <r>   17.9717    0.0000 </r>
      </set>
      <set comment="kpoint 24">
       <r>   -1.9528    1.0000 </r>
       <r>    2.6089    1.0000 </r>
       <r>    6.2060    1.0000 </r>
       <r>   10.5584    0.0000 </r>
       <r>   10.9776    0.0000 </r>
       <r>   13.9596    0.0000 </r>
       <r>   15.0095    0.0000 </r>
       <r>   17.6854    0.0000 </r>
      </set>
      <set comment="kpoint 25">
       <r>   -1.2605    1.0000 </r>
       <r>    1.4819    1.0000 </r>
       <r>    6.8653    1.0000 </r>
       <r>    9.4840    0.5044 </r>
       <r>   11.6051    0.0000 </r>
       <r>   14.0515    0.0000 </r>
       <r>   14.5943    0.0000 </r>
       <r>   16.9351    0.0000 </r>
      </set>
      <set comment="kpoint 26">
       <r>   -0.4560    1.0000 </r>
       <r>    0.4589    1.0000 </r>
       <r>    7.6336    1.0000 </r>
       <r>    8.5077    1.0000 </r>
       <r>   12.3312    0.0000 </r>
       <r>   13.1503    0.0000 </r>
       <r>   15.3157    0.0000 </r>
       <r>   16.1081    0.0000 </r>
      </set>
      <set comment="kpoint 27">
       <r>   -2.0686    1.0000 </r>
       <r>    4.0704    1.0000 </r>
       <r>    4.5460    1.0000 </r>
       <r>   10.4597    0.0000 </r>
       <r>   10.8723    0.0000 </r>
       <r>   13.8594    0.0000 </r>
       <r>   15.8523    0.0000 </r>
       <r>   17.5958    0.0000 </r>
      </set>
      <set comment="kpoint 28">
       <r>   -1.4912    1.0000 </r>
       <r>    3.0444    1.0000 </r>
       <r>    4.9010    1.0000 </r>
       <r>    9.2798    0.9951 </r>
       <r>   11.3953    0.0000 </r>
       <r>   14.3941    0.0000 </r>
       <r>   15.2509    0.0000 </r>
       <r>   17.4544    0.0000 </r>
      </set>
      <set comment="kpoint 29">
       <r>   -0.8008    1.0000 </r>
       <r>    1.9308    1.0000 </r>
       <r>    5.5551    1.0000 </r>
       <r>    8.1940    1.0000 </r>
       <r>   12.0180    0.0000 </r>
       <r>   14.4005    0.0000 </r>
       <r>   15.0193    0.0000 </r>
       <r>   17.1569    0.0000 </r>
      </set>
      <set comment="kpoint 30">
       <r>    0.0013    1.0000 </r>
       <r>    0.9130    1.0000 </r>
       <r>    6.3275    1.0000 </r>
       <r>    7.2085    1.0000 </r>
       <r>   12.7355    0.0000 </r>
       <r>   13.5378    0.0000 </r>
       <r>   15.7226    0.0000 </r>
       <r>   16.4720    0.0000 </r>
      </set>
      <set comment="kpoint 31">
       <r>   -0.9158    1.0000 </r>
       <r>    3.3909    1.0000 </r>
       <r>    3.8912    1.0000 </r>
       <r>    8.0884    1.0000 </r>
       <r>   11.9135    0.0000 </r>
       <r>   14.9185    0.0000 </r>
       <r>   15.2578    0.0000 </r>
       <r>   17.0156    0.0000 </r>
      </set>
      <set comment="kpoint 32">
       <r>   -0.2280    1.0000 </r>
       <r>    2.4799    1.0000 </r>
       <r>    4.3508    1.0000 </r>
       <r>    6.9939    1.0000 </r>
       <r>   12.5277    0.0000 </r>
       <r>   14.7497    0.0000 </r>
       <r>   15.5242    0.0000 </r>
       <r>   16.9811    0.0000 </r>
      </set>
      <set comment="kpoint 33">
       <r>    0.5707    1.0000 </r>
       <r>    1.4767    1.0000 </r>
       <r>    5.1171    1.0000 </r>
       <r>    6.0017    1.0000 </r>
       <r>   13.2286    0.0000 </r>
       <r>   13.9930    0.0000 </r>
       <r>   16.1831    0.0000 </r>
       <r>   16.7868    0.0000 </r>
      </set>
      <set comment="kpoint 34">
       <r>    0.4564    1.0000 </r>
       <r>    2.9348    1.0000 </r>
       <r>    3.4526    1.0000 </r>
       <r>    5.8927    1.0000 </r>
       <r>   13.1254    0.0000 </r>
       <r>   14.8614    0.0000 </r>
       <r>   16.0853    0.0000 </r>
       <r>   16.6157    0.0000 </r>
      </set>
      <set comment="kpoint 35">
       <r>    1.2491    1.0000 </r>
       <r>    2.1399    1.0000 </r>
       <r>    4.0190    1.0000 </r>
       <r>    4.8971    1.0000 </r>
       <r>   13.7889    0.0000 </r>
       <r>   14.4485    0.0000 </r>
       <r>   16.5976    0.0000 </r>
       <r>   16.6894    0.0000 </r>
      </set>
      <set comment="kpoint 36">
       <r>    2.0263    1.0000 </r>
       <r>    2.7058    1.0000 </r>
       <r>    3.2328    1.0000 </r>
       <r>    3.9082    1.0000 </r>
       <r>   14.3480    0.0000 </r>
       <r>   14.6632    0.0000 </r>
       <r>   16.4123    0.0000 </r>
       <r>   16.5911    0.0000 </r>
      </set>
      <set comment="kpoint 37">
       <r>   -4.0445    1.0000 </r>
       <r>    7.3190    1.0000 </r>
       <r>    7.7889    1.0000 </r>
       <r>    7.7889    1.0000 </r>
       <r>   12.6176    0.0000 </r>
       <r>   13.9304    0.0000 </r>
       <r>   13.9304    0.0000 </r>
       <r>   17.5484    0.0000 </r>
      </set>
      <set comment="kpoint 38">
       <r>   -3.8110    1.0000 </r>
       <r>    6.1265    1.0000 </r>
       <r>    7.7376    1.0000 </r>
       <r>    8.0068    1.0000 </r>
       <r>   13.0808    0.0000 </r>
       <r>   14.1588    0.0000 </r>
       <r>   15.5081    0.0000 </r>
       <r>   16.5703    0.0000 </r>
      </set>
      <set comment="kpoint 39">
       <r>   -3.4613    1.0000 </r>
       <r>    4.7256    1.0000 </r>
       <r>    8.0483    1.0000 </r>
       <r>    8.3335    1.0000 </r>
       <r>   13.4488    0.0000 </r>
       <r>   14.5011    0.0000 </r>
       <r>   15.4322    0.0000 </r>
       <r>   15.9801    0.0000 </r>
      </set>
      <set comment="kpoint 40">
       <r>   -2.9959    1.0000 </r>
       <r>    3.3971    1.0000 </r>
       <r>    8.4771    1.0000 </r>
       <r>    8.7686    1.0000 </r>
       <r>   13.8768    0.0000 </r>
       <r>   14.2901    0.0000 </r>
       <r>   14.7489    0.0000 </r>
       <r>   14.9567    0.0000 </r>
      </set>
      <set comment="kpoint 41">
       <r>   -2.4156    1.0000 </r>
       <r>    2.1624    1.0000 </r>
       <r>    9.0143    1.0000 </r>
       <r>    9.3115    0.9990 </r>
       <r>   13.1971    0.0000 </r>
       <r>   13.5984    0.0000 </r>
       <r>   14.3870    0.0000 </r>
       <r>   15.5251    0.0000 </r>
      </set>
      <set comment="kpoint 42">
       <r>   -1.7214    1.0000 </r>
       <r>    1.0296    1.0000 </r>
       <r>    9.6562    0.0006 </r>
       <r>    9.9614    0.0000 </r>
       <r>   12.1768    0.0000 </r>
       <r>   12.5391    0.0000 </r>
       <r>   14.9800    0.0000 </r>
       <r>   16.2049    0.0000 </r>
      </set>
      <set comment="kpoint 43">
       <r>   -0.9147    1.0000 </r>
       <r>    0.0030    1.0000 </r>
       <r>   10.4000    0.0000 </r>
       <r>   10.7173    0.0000 </r>
       <r>   11.2419    0.0000 </r>
       <r>   11.5773    0.0000 </r>
       <r>   15.6484    0.0000 </r>
       <r>   16.3772    0.0000 </r>
      </set>
      <set comment="kpoint 44">
       <r>   -3.5778    1.0000 </r>
       <r>    6.1636    1.0000 </r>
       <r>    6.5823    1.0000 </r>
       <r>    8.1041    1.0000 </r>
       <r>   13.6292    0.0000 </r>
       <r>   15.3644    0.0000 </r>
       <r>   15.5589    0.0000 </r>
       <r>   16.0108    0.0000 </r>
      </set>
      <set comment="kpoint 45">
       <r>   -3.2285    1.0000 </r>
       <r>    4.9361    1.0000 </r>
       <r>    6.7312    1.0000 </r>
       <r>    8.4252    1.0000 </r>
       <r>   14.0067    0.0000 </r>
       <r>   14.3371    0.0000 </r>
       <r>   15.9083    0.0000 </r>
       <r>   15.9136    0.0000 </r>
      </set>
      <set comment="kpoint 46">
       <r>   -2.7636    1.0000 </r>
       <r>    3.6178    1.0000 </r>
       <r>    7.1598    1.0000 </r>
       <r>    8.8576    1.0000 </r>
       <r>   13.1338    0.0000 </r>
       <r>   14.4395    0.0000 </r>
       <r>   14.7484    0.0000 </r>
       <r>   16.3726    0.0000 </r>
      </set>
      <set comment="kpoint 47">
       <r>   -2.1840    1.0000 </r>
       <r>    2.3869    1.0000 </r>
       <r>    7.7047    1.0000 </r>
       <r>    9.3977    1.0484 </r>
       <r>   11.9959    0.0000 </r>
       <r>   13.6318    0.0000 </r>
       <r>   14.9535    0.0000 </r>
       <r>   16.9164    0.0000 </r>
      </set>
      <set comment="kpoint 48">
       <r>   -1.4908    1.0000 </r>
       <r>    1.2563    1.0000 </r>
       <r>    8.3585    1.0000 </r>
       <r>   10.0436    0.0000 </r>
       <r>   10.9415    0.0000 </r>
       <r>   12.5930    0.0000 </r>
       <r>   15.5466    0.0000 </r>
       <r>   17.5054    0.0000 </r>
      </set>
      <set comment="kpoint 49">
       <r>   -0.6851    1.0000 </r>
       <r>    0.2313    1.0000 </r>
       <r>    9.1180    1.0000 </r>
       <r>    9.9803    0.0000 </r>
       <r>   10.7935    0.0000 </r>
       <r>   11.6446    0.0000 </r>
       <r>   16.2037    0.0000 </r>
       <r>   16.8880    0.0000 </r>
      </set>
      <set comment="kpoint 50">
       <r>   -2.8798    1.0000 </r>
       <r>    5.0736    1.0000 </r>
       <r>    5.5221    1.0000 </r>
       <r>    8.7451    1.0000 </r>
       <r>   13.0592    0.0000 </r>
       <r>   14.3832    0.0000 </r>
       <r>   15.8118    0.0000 </r>
       <r>   16.8028    0.0000 </r>
      </set>
      <set comment="kpoint 51">
       <r>   -2.4158    1.0000 </r>
       <r>    3.9402    1.0000 </r>
       <r>    5.7731    1.0000 </r>
       <r>    9.1763    0.9998 </r>
       <r>   11.8222    0.0000 </r>
       <r>   14.8143    0.0000 </r>
       <r>   14.9636    0.0000 </r>
       <r>   16.8099    0.0000 </r>
      </set>
      <set comment="kpoint 52">
       <r>   -1.8373    1.0000 </r>
       <r>    2.7212    1.0000 </r>
       <r>    6.3144    1.0000 </r>
       <r>    9.7147    0.0035 </r>
       <r>   10.6606    0.0000 </r>
       <r>   13.9062    0.0000 </r>
       <r>   15.3240    0.0000 </r>
       <r>   17.1049    0.0000 </r>
      </set>
      <set comment="kpoint 53">
       <r>   -1.1454    1.0000 </r>
       <r>    1.5952    1.0000 </r>
       <r>    6.9731    1.0000 </r>
       <r>    9.5887   -0.0495 </r>
       <r>   10.3583    0.0000 </r>
       <r>   12.8883    0.0000 </r>
       <r>   15.9045    0.0000 </r>
       <r>   17.2940    0.0000 </r>
      </set>
      <set comment="kpoint 54">
       <r>   -0.3414    1.0000 </r>
       <r>    0.5730    1.0000 </r>
       <r>    7.7407    1.0000 </r>
       <r>    8.6138    1.0000 </r>
       <r>   11.1047    0.0000 </r>
       <r>   11.9501    0.0000 </r>
       <r>   16.5217    0.0000 </r>
       <r>   17.0711    0.0000 </r>
      </set>
      <set comment="kpoint 55">
       <r>   -1.9529    1.0000 </r>
       <r>    4.1810    1.0000 </r>
       <r>    4.6572    1.0000 </r>
       <r>    9.6060   -0.0364 </r>
       <r>   10.5634    0.0000 </r>
       <r>   14.9858    0.0000 </r>
       <r>   15.2372    0.0000 </r>
       <r>   16.0312    0.0000 </r>
      </set>
      <set comment="kpoint 56">
       <r>   -1.3759    1.0000 </r>
       <r>    3.1566    1.0000 </r>
       <r>    5.0116    1.0000 </r>
       <r>    9.3861    1.0514 </r>
       <r>   10.1422    0.0000 </r>
       <r>   14.2404    0.0000 </r>
       <r>   15.7282    0.0000 </r>
       <r>   16.1320    0.0000 </r>
      </set>
      <set comment="kpoint 57">
       <r>   -0.6858    1.0000 </r>
       <r>    2.0439    1.0000 </r>
       <r>    5.6653    1.0000 </r>
       <r>    8.3018    1.0000 </r>
       <r>   10.7826    0.0000 </r>
       <r>   13.2791    0.0000 </r>
       <r>   16.2611    0.0000 </r>
       <r>   16.5446    0.0000 </r>
      </set>
      <set comment="kpoint 58">
       <r>    0.1158    1.0000 </r>
       <r>    1.0269    1.0000 </r>
       <r>    6.4371    1.0000 </r>
       <r>    7.3173    1.0000 </r>
       <r>   11.5238    0.0000 </r>
       <r>   12.3601    0.0000 </r>
       <r>   16.7333    0.0000 </r>
       <r>   16.8597    0.0000 </r>
      </set>
      <set comment="kpoint 59">
       <r>   -0.8008    1.0000 </r>
       <r>    3.5033    1.0000 </r>
       <r>    4.0025    1.0000 </r>
       <r>    8.1967    1.0000 </r>
       <r>   10.6753    0.0000 </r>
       <r>   14.3725    0.0000 </r>
       <r>   15.4292    0.0000 </r>
       <r>   16.1701    0.0000 </r>
      </set>
      <set comment="kpoint 60">
       <r>   -0.1133    1.0000 </r>
       <r>    2.5929    1.0000 </r>
       <r>    4.4621    1.0000 </r>
       <r>    7.1034    1.0000 </r>
       <r>   11.3106    0.0000 </r>
       <r>   13.7240    0.0000 </r>
       <r>   15.6346    0.0000 </r>
       <r>   16.5550    0.0000 </r>
      </set>
      <set comment="kpoint 61">
       <r>    0.6848    1.0000 </r>
       <r>    1.5903    1.0000 </r>
       <r>    5.2280    1.0000 </r>
       <r>    6.1120    1.0000 </r>
       <r>   12.0428    0.0000 </r>
       <r>   12.8604    0.0000 </r>
       <r>   16.1603    0.0000 </r>
       <r>   16.5879    0.0000 </r>
      </set>
      <set comment="kpoint 62">
       <r>    0.5706    1.0000 </r>
       <r>    3.0482    1.0000 </r>
       <r>    3.5640    1.0000 </r>
       <r>    6.0032    1.0000 </r>
       <r>   11.9370    0.0000 </r>
       <r>   13.9644    0.0000 </r>
       <r>   15.0194    0.0000 </r>
       <r>   16.4958    0.0000 </r>
      </set>
      <set comment="kpoint 63">
       <r>    1.3629    1.0000 </r>
       <r>    2.2533    1.0000 </r>
       <r>    4.1306    1.0000 </r>
       <r>    5.0083    1.0000 </r>
       <r>   12.6507    0.0000 </r>
       <r>   13.4137    0.0000 </r>
       <r>   15.3318    0.0000 </r>
       <r>   15.9655    0.0000 </r>
      </set>
      <set comment="kpoint 64">
       <r>    2.1398    1.0000 </r>
       <r>    2.8197    1.0000 </r>
       <r>    3.3443    1.0000 </r>
       <r>    4.0199    1.0000 </r>
       <r>   13.3102    0.0000 </r>
       <r>   13.7604    0.0000 </r>
       <r>   14.8124    0.0000 </r>
       <r>   15.2302    0.0000 </r>
      </set>
      <set comment="kpoint 65">
       <r>   -3.3449    1.0000 </r>
       <r>    6.2288    1.0000 </r>
       <r>    6.8027    1.0000 </r>
       <r>    6.8027    1.0000 </r>
       <r>   14.7776    0.0000 </r>
       <r>   15.2340    0.0000 </r>
       <r>   16.2346    0.0000 </r>
       <r>   16.2347    0.0000 </r>
      </set>
      <set comment="kpoint 66">
       <r>   -2.9959    1.0000 </r>
       <r>    5.1454    1.0000 </r>
       <r>    6.8041    1.0000 </r>
       <r>    7.1332    1.0000 </r>
       <r>   14.2310    0.0000 </r>
       <r>   14.9324    0.0000 </r>
       <r>   15.3150    0.0000 </r>
       <r>   16.3635    0.0000 </r>
      </set>
      <set comment="kpoint 67">
       <r>   -2.5316    1.0000 </r>
       <r>    3.8382    1.0000 </r>
       <r>    7.2210    1.0000 </r>
       <r>    7.5735    1.0000 </r>
       <r>   13.0968    0.0000 </r>
       <r>   13.6614    0.0000 </r>
       <r>   15.7508    0.0000 </r>
       <r>   16.6722    0.0000 </r>
      </set>
      <set comment="kpoint 68">
       <r>   -1.9528    1.0000 </r>
       <r>    2.6111    1.0000 </r>
       <r>    7.7611    1.0000 </r>
       <r>    8.1233    1.0000 </r>
       <r>   11.9948    0.0000 </r>
       <r>   12.4820    0.0000 </r>
       <r>   16.2170    0.0000 </r>
       <r>   17.0460    0.0000 </r>
      </set>
      <set comment="kpoint 69">
       <r>   -1.2604    1.0000 </r>
       <r>    1.4828    1.0000 </r>
       <r>    8.4103    1.0000 </r>
       <r>    8.7819    1.0000 </r>
       <r>   10.9627    0.0000 </r>
       <r>   11.4009    0.0000 </r>
       <r>   16.7116    0.0000 </r>
       <r>   17.3717    0.0000 </r>
      </set>
      <set comment="kpoint 70">
       <r>   -0.4558    1.0000 </r>
       <r>    0.4594    1.0000 </r>
       <r>    9.1635    0.9999 </r>
       <r>    9.5486   -0.0031 </r>
       <r>   10.0161    0.0000 </r>
       <r>   10.4221    0.0000 </r>
       <r>   17.1738    0.0000 </r>
       <r>   17.4494    0.0000 </r>
      </set>
      <set comment="kpoint 71">
       <r>   -2.6477    1.0000 </r>
       <r>    5.2785    1.0000 </r>
       <r>    5.7438    1.0000 </r>
       <r>    7.3148    1.0000 </r>
       <r>   13.2047    0.0000 </r>
       <r>   14.7069    0.0000 </r>
       <r>   15.3404    0.0000 </r>
       <r>   15.9323    0.0000 </r>
      </set>
      <set comment="kpoint 72">
       <r>   -2.1842    1.0000 </r>
       <r>    4.1601    1.0000 </r>
       <r>    5.9866    1.0000 </r>
       <r>    7.7465    1.0000 </r>
       <r>   12.0037    0.0000 </r>
       <r>   13.7095    0.0000 </r>
       <r>   15.4637    0.0000 </r>
       <r>   16.3625    0.0000 </r>
      </set>
      <set comment="kpoint 73">
       <r>   -1.6064    1.0000 </r>
       <r>    2.9452    1.0000 </r>
       <r>    6.5260    1.0000 </r>
       <r>    8.2918    1.0000 </r>
       <r>   10.8555    0.0000 </r>
       <r>   12.5834    0.0000 </r>
       <r>   15.8986    0.0000 </r>
       <r>   16.7817    0.0000 </r>
      </set>
      <set comment="kpoint 74">
       <r>   -0.9153    1.0000 </r>
       <r>    1.8214    1.0000 </r>
       <r>    7.1833    1.0000 </r>
       <r>    8.9453    1.0000 </r>
       <r>    9.7904    0.0002 </r>
       <r>   11.5293    0.0000 </r>
       <r>   16.4106    0.0000 </r>
       <r>   17.1327    0.0000 </r>
      </set>
      <set comment="kpoint 75">
       <r>   -0.1123    1.0000 </r>
       <r>    0.8008    1.0000 </r>
       <r>    7.9491    1.0000 </r>
       <r>    8.8195    1.0000 </r>
       <r>    9.7047    0.0042 </r>
       <r>   10.5674    0.0000 </r>
       <r>   16.9107    0.0000 </r>
       <r>   17.2168    0.0000 </r>
      </set>
      <set comment="kpoint 76">
       <r>   -1.7219    1.0000 </r>
       <r>    4.3999    1.0000 </r>
       <r>    4.8794    1.0000 </r>
       <r>    8.1761    1.0000 </r>
       <r>   10.7661    0.0000 </r>
       <r>   13.8090    0.0000 </r>
       <r>   14.5414    0.0000 </r>
       <r>   16.7488    0.0000 </r>
      </set>
      <set comment="kpoint 77">
       <r>   -1.1455    1.0000 </r>
       <r>    3.3802    1.0000 </r>
       <r>    5.2316    1.0000 </r>
       <r>    8.7192    1.0000 </r>
       <r>    9.5960   -0.0449 </r>
       <r>   12.9500    0.0000 </r>
       <r>   14.7565    0.0000 </r>
       <r>   17.0332    0.0000 </r>
      </set>
      <set comment="kpoint 78">
       <r>   -0.4563    1.0000 </r>
       <r>    2.2698    1.0000 </r>
       <r>    5.8843    1.0000 </r>
       <r>    8.5156    1.0000 </r>
       <r>    9.3699    1.0426 </r>
       <r>   11.9304    0.0000 </r>
       <r>   15.3052    0.0000 </r>
       <r>   17.0142    0.0000 </r>
      </set>
      <set comment="kpoint 79">
       <r>    0.3444    1.0000 </r>
       <r>    1.2543    1.0000 </r>
       <r>    6.6549    1.0000 </r>
       <r>    7.5335    1.0000 </r>
       <r>   10.1252    0.0000 </r>
       <r>   10.9811    0.0000 </r>
       <r>   15.9374    0.0000 </r>
       <r>   16.5687    0.0000 </r>
      </set>
      <set comment="kpoint 80">
       <r>   -0.5711    1.0000 </r>
       <r>    3.7271    1.0000 </r>
       <r>    4.2251    1.0000 </r>
       <r>    8.4120    1.0000 </r>
       <r>    9.2597    0.9961 </r>
       <r>   13.1718    0.0000 </r>
       <r>   13.9244    0.0000 </r>
       <r>   16.9394    0.0000 </r>
      </set>
      <set comment="kpoint 81">
       <r>    0.1157    1.0000 </r>
       <r>    2.8184    1.0000 </r>
       <r>    4.6842    1.0000 </r>
       <r>    7.3215    1.0000 </r>
       <r>    9.9067    0.0000 </r>
       <r>   12.4183    0.0000 </r>
       <r>   14.2441    0.0000 </r>
       <r>   16.3903    0.0000 </r>
      </set>
      <set comment="kpoint 82">
       <r>    0.9129    1.0000 </r>
       <r>    1.8172    1.0000 </r>
       <r>    5.4492    1.0000 </r>
       <r>    6.3319    1.0000 </r>
       <r>   10.6561    0.0000 </r>
       <r>   11.5009    0.0000 </r>
       <r>   14.9034    0.0000 </r>
       <r>   15.6471    0.0000 </r>
      </set>
      <set comment="kpoint 83">
       <r>    0.7989    1.0000 </r>
       <r>    3.2743    1.0000 </r>
       <r>    3.7868    1.0000 </r>
       <r>    6.2237    1.0000 </r>
       <r>   10.5480    0.0000 </r>
       <r>   12.7514    0.0000 </r>
       <r>   13.5067    0.0000 </r>
       <r>   15.5496    0.0000 </r>
      </set>
      <set comment="kpoint 84">
       <r>    1.5903    1.0000 </r>
       <r>    2.4797    1.0000 </r>
       <r>    4.3537    1.0000 </r>
       <r>    5.2303    1.0000 </r>
       <r>   11.2865    0.0000 </r>
       <r>   12.1000    0.0000 </r>
       <r>   13.9339    0.0000 </r>
       <r>   14.7009    0.0000 </r>
      </set>
      <set comment="kpoint 85">
       <r>    2.3666    1.0000 </r>
       <r>    3.0468    1.0000 </r>
       <r>    3.5672    1.0000 </r>
       <r>    4.2432    1.0000 </r>
       <r>   11.9939    0.0000 </r>
       <r>   12.5416    0.0000 </r>
       <r>   13.2962    0.0000 </r>
       <r>   13.8301    0.0000 </r>
      </set>
      <set comment="kpoint 86">
       <r>   -2.2999    1.0000 </r>
       <r>    5.4450    1.0000 </r>
       <r>    6.0761    1.0000 </r>
       <r>    6.0761    1.0000 </r>
       <r>   13.0388    0.0000 </r>
       <r>   13.9570    0.0000 </r>
       <r>   13.9570    0.0000 </r>
       <r>   16.9484    0.0000 </r>
      </set>
      <set comment="kpoint 87">
       <r>   -1.8373    1.0000 </r>
       <r>    4.4807    1.0000 </r>
       <r>    6.1601    1.0000 </r>
       <r>    6.5190    1.0000 </r>
       <r>   12.0469    0.0000 </r>
       <r>   12.6640    0.0000 </r>
       <r>   14.1622    0.0000 </r>
       <r>   17.3578    0.0000 </r>
      </set>
      <set comment="kpoint 88">
       <r>   -1.2605    1.0000 </r>
       <r>    3.2788    1.0000 </r>
       <r>    6.6856    1.0000 </r>
       <r>    7.0721    1.0000 </r>
       <r>   10.9508    0.0000 </r>
       <r>   11.4687    0.0000 </r>
       <r>   14.6311    0.0000 </r>
       <r>   17.4360    0.0000 </r>
      </set>
      <set comment="kpoint 89">
       <r>   -0.5707    1.0000 </r>
       <r>    2.1596    1.0000 </r>
       <r>    7.3367    1.0000 </r>
       <r>    7.7351    1.0000 </r>
       <r>    9.9117    0.0000 </r>
       <r>   10.3757    0.0000 </r>
       <r>   15.2100    0.0000 </r>
       <r>   17.1307    0.0000 </r>
      </set>
      <set comment="kpoint 90">
       <r>    0.2306    1.0000 </r>
       <r>    1.1417    1.0000 </r>
       <r>    8.0958    1.0000 </r>
       <r>    8.5073    1.0000 </r>
       <r>    8.9564    1.0000 </r>
       <r>    9.3880    1.0516 </r>
       <r>   15.8623    0.0000 </r>
       <r>   16.5393    0.0000 </r>
      </set>
      <set comment="kpoint 91">
       <r>   -1.3758    1.0000 </r>
       <r>    4.7162    1.0000 </r>
       <r>    5.2128    1.0000 </r>
       <r>    6.7994    1.0000 </r>
       <r>   11.0421    0.0000 </r>
       <r>   12.6113    0.0000 </r>
       <r>   13.1397    0.0000 </r>
       <r>   17.4848    0.0000 </r>
      </set>
      <set comment="kpoint 92">
       <r>   -0.8004    1.0000 </r>
       <r>    3.7130    1.0000 </r>
       <r>    5.5560    1.0000 </r>
       <r>    7.3421    1.0000 </r>
       <r>    9.8975    0.0000 </r>
       <r>   11.6564    0.0000 </r>
       <r>   13.4234    0.0000 </r>
       <r>   17.0312    0.0000 </r>
      </set>
      <set comment="kpoint 93">
       <r>   -0.1124    1.0000 </r>
       <r>    2.6073    1.0000 </r>
       <r>    6.2061    1.0000 </r>
       <r>    7.9989    1.0000 </r>
       <r>    8.8267    1.0000 </r>
       <r>   10.6015    0.0000 </r>
       <r>   14.0148    0.0000 </r>
       <r>   16.2891    0.0000 </r>
      </set>
      <set comment="kpoint 94">
       <r>    0.6867    1.0000 </r>
       <r>    1.5946    1.0000 </r>
       <r>    6.9744    1.0000 </r>
       <r>    7.8497    1.0000 </r>
       <r>    8.7636    1.0000 </r>
       <r>    9.6327   -0.0122 </r>
       <r>   14.7112    0.0000 </r>
       <r>   15.4831    0.0000 </r>
      </set>
      <set comment="kpoint 95">
       <r>   -0.2270    1.0000 </r>
       <r>    4.0591    1.0000 </r>
       <r>    4.5590    1.0000 </r>
       <r>    7.8816    1.0000 </r>
       <r>    8.7302    1.0000 </r>
       <r>   11.9260    0.0000 </r>
       <r>   12.5125    0.0000 </r>
       <r>   16.2023    0.0000 </r>
      </set>
      <set comment="kpoint 96">
       <r>    0.4586    1.0000 </r>
       <r>    3.1553    1.0000 </r>
       <r>    5.0158    1.0000 </r>
       <r>    7.6457    1.0000 </r>
       <r>    8.5350    1.0000 </r>
       <r>   11.1012    0.0000 </r>
       <r>   12.8984    0.0000 </r>
       <r>   15.2900    0.0000 </r>
      </set>
      <set comment="kpoint 97">
       <r>    1.2543    1.0000 </r>
       <r>    2.1567    1.0000 </r>
       <r>    5.7791    1.0000 </r>
       <r>    6.6596    1.0000 </r>
       <r>    9.2947    0.9956 </r>
       <r>   10.1551    0.0000 </r>
       <r>   13.6015    0.0000 </r>
       <r>   14.4086    0.0000 </r>
      </set>
      <set comment="kpoint 98">
       <r>    1.1406    1.0000 </r>
       <r>    3.6115    1.0000 </r>
       <r>    4.1210    1.0000 </r>
       <r>    6.5527    1.0000 </r>
       <r>    9.1838    0.9997 </r>
       <r>   11.4910    0.0000 </r>
       <r>   12.0891    0.0000 </r>
       <r>   14.3073    0.0000 </r>
      </set>
      <set comment="kpoint 99">
       <r>    1.9307    1.0000 </r>
       <r>    2.8184    1.0000 </r>
       <r>    4.6874    1.0000 </r>
       <r>    5.5621    1.0000 </r>
       <r>    9.9357    0.0000 </r>
       <r>   10.7749    0.0000 </r>
       <r>   12.5822    0.0000 </r>
       <r>   13.3939    0.0000 </r>
      </set>
      <set comment="kpoint 100">
       <r>    2.7058    1.0000 </r>
       <r>    3.3859    1.0000 </r>
       <r>    3.9015    1.0000 </r>
       <r>    4.5774    1.0000 </r>
       <r>   10.6666    0.0000 </r>
       <r>   11.2757    0.0000 </r>
       <r>   11.8762    0.0000 </r>
       <r>   12.4766    0.0000 </r>
      </set>
      <set comment="kpoint 101">
       <r>   -0.9153    1.0000 </r>
       <r>    4.9891    1.0000 </r>
       <r>    5.6570    1.0000 </r>
       <r>    5.6570    1.0000 </r>
       <r>   11.0358    0.0000 </r>
       <r>   11.8341    0.0000 </r>
       <r>   11.8341    0.0000 </r>
       <r>   17.0055    0.0000 </r>
      </set>
      <set comment="kpoint 102">
       <r>   -0.3413    1.0000 </r>
       <r>    4.1456    1.0000 </r>
       <r>    5.8347    1.0000 </r>
       <r>    6.2120    1.0000 </r>
       <r>   10.0839    0.0000 </r>
       <r>   10.6298    0.0000 </r>
       <r>   12.1733    0.0000 </r>
       <r>   16.1305    0.0000 </r>
      </set>
      <set comment="kpoint 103">
       <r>    0.3449    1.0000 </r>
       <r>    3.0542    1.0000 </r>
       <r>    6.4686    1.0000 </r>
       <r>    6.8774    1.0000 </r>
       <r>    9.0517    1.0000 </r>
       <r>    9.5301    0.0869 </r>
       <r>   12.7774    0.0000 </r>
       <r>   15.2010    0.0000 </r>
      </set>
      <set comment="kpoint 104">
       <r>    1.1417    1.0000 </r>
       <r>    2.0466    1.0000 </r>
       <r>    7.2282    1.0000 </r>
       <r>    7.6528    1.0000 </r>
       <r>    8.0928    1.0000 </r>
       <r>    8.5373    1.0000 </r>
       <r>   13.4974    0.0000 </r>
       <r>   14.3116    0.0000 </r>
      </set>
      <set comment="kpoint 105">
       <r>    0.2308    1.0000 </r>
       <r>    4.4875    1.0000 </r>
       <r>    5.0040    1.0000 </r>
       <r>    6.5959    1.0000 </r>
       <r>    9.1307    1.0000 </r>
       <r>   10.7411    0.0000 </r>
       <r>   11.1997    0.0000 </r>
       <r>   15.1056    0.0000 </r>
      </set>
      <set comment="kpoint 106">
       <r>    0.9146    1.0000 </r>
       <r>    3.6010    1.0000 </r>
       <r>    5.4512    1.0000 </r>
       <r>    7.2488    1.0000 </r>
       <r>    8.0655    1.0000 </r>
       <r>    9.8526    0.0000 </r>
       <r>   11.6302    0.0000 </r>
       <r>   14.1101    0.0000 </r>
      </set>
      <set comment="kpoint 107">
       <r>    1.7081    1.0000 </r>
       <r>    2.6076    1.0000 </r>
       <r>    6.2107    1.0000 </r>
       <r>    7.0868    1.0000 </r>
       <r>    8.0151    1.0000 </r>
       <r>    8.8866    1.0000 </r>
       <r>   12.3537    0.0000 </r>
       <r>   13.1864    0.0000 </r>
      </set>
      <set comment="kpoint 108">
       <r>    1.5951    1.0000 </r>
       <r>    4.0560    1.0000 </r>
       <r>    4.5665    1.0000 </r>
       <r>    6.9867    1.0000 </r>
       <r>    7.8966    1.0000 </r>
       <r>   10.2724    0.0000 </r>
       <r>   10.7723    0.0000 </r>
       <r>   13.0824    0.0000 </r>
      </set>
      <set comment="kpoint 109">
       <r>    2.3830    1.0000 </r>
       <r>    3.2679    1.0000 </r>
       <r>    5.1299    1.0000 </r>
       <r>    6.0014    1.0000 </r>
       <r>    8.6560    1.0000 </r>
       <r>    9.5107    0.2363 </r>
       <r>   11.3080    0.0000 </r>
       <r>   12.1420    0.0000 </r>
      </set>
      <set comment="kpoint 110">
       <r>    3.1562    1.0000 </r>
       <r>    3.8347    1.0000 </r>
       <r>    4.3471    1.0000 </r>
       <r>    5.0213    1.0000 </r>
       <r>    9.3994    1.0471 </r>
       <r>   10.0491    0.0000 </r>
       <r>   10.5576    0.0000 </r>
       <r>   11.2008    0.0000 </r>
      </set>
      <set comment="kpoint 111">
       <r>    0.8012    1.0000 </r>
       <r>    4.8686    1.0000 </r>
       <r>    5.5600    1.0000 </r>
       <r>    5.5600    1.0000 </r>
       <r>    9.2729    0.9953 </r>
       <r>    9.9902    0.0000 </r>
       <r>    9.9902    0.0000 </r>
       <r>   14.0099    0.0000 </r>
      </set>
      <set comment="kpoint 112">
       <r>    1.4827    1.0000 </r>
       <r>    4.1451    1.0000 </r>
       <r>    5.8363    1.0000 </r>
       <r>    6.2267    1.0000 </r>
       <r>    8.3854    1.0000 </r>
       <r>    8.8866    1.0000 </r>
       <r>   10.4597    0.0000 </r>
       <r>   12.9789    0.0000 </r>
      </set>
      <set comment="kpoint 113">
       <r>    2.2730    1.0000 </r>
       <r>    3.1670    1.0000 </r>
       <r>    6.5757    1.0000 </r>
       <r>    7.0038    1.0000 </r>
       <r>    7.4365    1.0000 </r>
       <r>    7.8908    1.0000 </r>
       <r>   11.1890    0.0000 </r>
       <r>   12.0344    0.0000 </r>
      </set>
      <set comment="kpoint 114">
       <r>    2.1609    1.0000 </r>
       <r>    4.5948    1.0000 </r>
       <r>    5.1230    1.0000 </r>
       <r>    6.7150    1.0000 </r>
       <r>    7.5078    1.0000 </r>
       <r>    9.1458    1.0000 </r>
       <r>    9.5600   -0.0337 </r>
       <r>   11.9283    0.0000 </r>
      </set>
      <set comment="kpoint 115">
       <r>    2.9456    1.0000 </r>
       <r>    3.8249    1.0000 </r>
       <r>    5.6747    1.0000 </r>
       <r>    6.5389    1.0000 </r>
       <r>    7.4749    1.0000 </r>
       <r>    8.3405    1.0000 </r>
       <r>   10.1260    0.0000 </r>
       <r>   10.9725    0.0000 </r>
      </set>
      <set comment="kpoint 116">
       <r>    3.7156    1.0000 </r>
       <r>    4.3882    1.0000 </r>
       <r>    4.9039    1.0000 </r>
       <r>    5.5717    1.0000 </r>
       <r>    8.2198    1.0000 </r>
       <r>    8.8984    1.0000 </r>
       <r>    9.3439    1.0185 </r>
       <r>   10.0164    0.0000 </r>
      </set>
      <set comment="kpoint 117">
       <r>    2.8358    1.0000 </r>
       <r>    5.0819    1.0000 </r>
       <r>    5.7905    1.0000 </r>
       <r>    5.7905    1.0000 </r>
       <r>    7.7886    1.0000 </r>
       <r>    8.4541    1.0000 </r>
       <r>    8.4541    1.0000 </r>
       <r>   10.8634    0.0000 </r>
      </set>
      <set comment="kpoint 118">
       <r>    3.6150    1.0000 </r>
       <r>    4.4781    1.0000 </r>
       <r>    6.1625    1.0000 </r>
       <r>    6.5686    1.0000 </r>
       <r>    6.9891    1.0000 </r>
       <r>    7.4567    1.0000 </r>
       <r>    9.0489    1.0000 </r>
       <r>    9.8985    0.0000 </r>
      </set>
      <set comment="kpoint 119">
       <r>    4.3787    1.0000 </r>
       <r>    5.0299    1.0000 </r>
       <r>    5.5718    1.0000 </r>
       <r>    6.2151    1.0000 </r>
       <r>    7.1520    1.0000 </r>
       <r>    7.8560    1.0000 </r>
       <r>    8.2371    1.0000 </r>
       <r>    8.9328    1.0000 </r>
      </set>
      <set comment="kpoint 120">
       <r>    5.1226    1.0000 </r>
       <r>    5.6008    1.0000 </r>
       <r>    6.3502    1.0000 </r>
       <r>    6.3502    1.0000 </r>
       <r>    6.6636    1.0000 </r>
       <r>    7.2389    1.0000 </r>
       <r>    7.2389    1.0000 </r>
       <r>    7.9626    1.0000 </r>
      </set>
     </set>
    </set>
   </array>
  </eigenvalues>
  <separator name="orbital magnetization" >
   <v name="MAGDIPOLOUT">      0.00000000      0.00000000      0.00000000</v>
  </separator>
  <dos>
   <i name="efermi">      9.48444454 </i>
   <total>
    <array>
     <dimension dim="1">gridpoints</dimension>
     <dimension dim="2">spin</dimension>
     <field>energy</field>
     <field>total</field>
     <field>integrated</field>
     <set>
      <set comment="spin 1">
       <r>    -5.6056     0.0000     0.0000 </r>
       <r>    -5.5168     0.0000     0.0000 </r>
       <r>    -5.4281     0.0000     0.0000 </r>
       <r>    -5.3393     0.0000     0.0000 </r>
       <r>    -5.2505     0.0000     0.0000 </r>
       <r>    -5.1618     0.0000     0.0000 </r>
       <r>    -5.0730     0.0000     0.0000 </r>
       <r>    -4.9843     0.0000     0.0000 </r>
       <r>    -4.8955     0.0000     0.0000 </r>
       <r>    -4.8068     0.0000     0.0000 </r>
       <r>    -4.7180     0.0000     0.0000 </r>
       <r>    -4.6292     0.0001     0.0000 </r>
       <r>    -4.5405    -0.0006     0.0000 </r>
       <r>    -4.4517     0.0019     0.0001 </r>
       <r>    -4.3630     0.0289     0.0027 </r>
       <r>    -4.2742     0.0817     0.0100 </r>
       <r>    -4.1855     0.1016     0.0190 </r>
       <r>    -4.0967     0.1032     0.0281 </r>
       <r>    -4.0079     0.1314     0.0398 </r>
       <r>    -3.9192     0.1918     0.0568 </r>
       <r>    -3.8304     0.1554     0.0706 </r>
       <r>    -3.7417     0.1056     0.0800 </r>
       <r>    -3.6529     0.2010     0.0978 </r>
       <r>    -3.5641     0.2984     0.1243 </r>
       <r>    -3.4754     0.1977     0.1418 </r>
       <r>    -3.3866     0.1094     0.1516 </r>
       <r>    -3.2979     0.2421     0.1730 </r>
       <r>    -3.2091     0.3025     0.1999 </r>
       <r>    -3.1204     0.2387     0.2211 </r>
       <r>    -3.0316     0.2177     0.2404 </r>
       <r>    -2.9428     0.3114     0.2680 </r>
       <r>    -2.8541     0.3114     0.2957 </r>
       <r>    -2.7653     0.2359     0.3166 </r>
       <r>    -2.6766     0.1873     0.3332 </r>
       <r>    -2.5878     0.2218     0.3529 </r>
       <r>    -2.4991     0.5106     0.3982 </r>
       <r>    -2.4103     0.3661     0.4307 </r>
       <r>    -2.3215     0.2562     0.4535 </r>
       <r>    -2.2328     0.2548     0.4761 </r>
       <r>    -2.1440     0.4240     0.5137 </r>
       <r>    -2.0553     0.1341     0.5256 </r>
       <r>    -1.9665     0.2846     0.5509 </r>
       <r>    -1.8777     0.5381     0.5987 </r>
       <r>    -1.7890     0.5134     0.6442 </r>
       <r>    -1.7002     0.2257     0.6643 </r>
       <r>    -1.6115     0.3118     0.6919 </r>
       <r>    -1.5227     0.4203     0.7292 </r>
       <r>    -1.4340     0.4051     0.7652 </r>
       <r>    -1.3452     0.3077     0.7925 </r>
       <r>    -1.2564     0.3645     0.8249 </r>
       <r>    -1.1677     0.4571     0.8654 </r>
       <r>    -1.0789     0.4812     0.9081 </r>
       <r>    -0.9902     0.1986     0.9258 </r>
       <r>    -0.9014     0.3746     0.9590 </r>
       <r>    -0.8126     0.5976     1.0121 </r>
       <r>    -0.7239     0.6692     1.0715 </r>
       <r>    -0.6351     0.3983     1.1068 </r>
       <r>    -0.5464     0.2037     1.1249 </r>
       <r>    -0.4576     0.4036     1.1607 </r>
       <r>    -0.3689     0.4585     1.2014 </r>
       <r>    -0.2801     0.3022     1.2282 </r>
       <r>    -0.1913     0.3901     1.2629 </r>
       <r>    -0.1026     0.7560     1.3300 </r>
       <r>    -0.0138     0.5836     1.3818 </r>
       <r>     0.0749     0.3278     1.4109 </r>
       <r>     0.1637     0.6313     1.4669 </r>
       <r>     0.2524     0.4452     1.5064 </r>
       <r>     0.3412     0.3235     1.5351 </r>
       <r>     0.4300     0.3975     1.5704 </r>
       <r>     0.5187     0.6350     1.6268 </r>
       <r>     0.6075     0.5285     1.6737 </r>
       <r>     0.6962     0.4300     1.7118 </r>
       <r>     0.7850     0.3965     1.7470 </r>
       <r>     0.8738     0.5261     1.7937 </r>
       <r>     0.9625     0.8421     1.8685 </r>
       <r>     1.0513     0.3592     1.9004 </r>
       <r>     1.1400     0.3958     1.9355 </r>
       <r>     1.2288     0.6651     1.9945 </r>
       <r>     1.3175     0.7889     2.0645 </r>
       <r>     1.4063     0.2035     2.0826 </r>
       <r>     1.4951     0.4983     2.1268 </r>
       <r>     1.5838     0.8437     2.2017 </r>
       <r>     1.6726     0.7562     2.2688 </r>
       <r>     1.7613     0.1845     2.2852 </r>
       <r>     1.8501     0.4009     2.3208 </r>
       <r>     1.9389     0.4904     2.3643 </r>
       <r>     2.0276     0.5629     2.4143 </r>
       <r>     2.1164     0.7063     2.4770 </r>
       <r>     2.2051     0.8362     2.5512 </r>
       <r>     2.2939     0.7362     2.6165 </r>
       <r>     2.3826     0.5781     2.6679 </r>
       <r>     2.4714     0.5257     2.7145 </r>
       <r>     2.5602     0.4420     2.7538 </r>
       <r>     2.6489     0.9372     2.8369 </r>
       <r>     2.7377     0.5151     2.8827 </r>
       <r>     2.8264     0.5297     2.9297 </r>
       <r>     2.9152     0.4726     2.9716 </r>
       <r>     3.0039     0.5470     3.0202 </r>
       <r>     3.0927     0.5462     3.0686 </r>
       <r>     3.1815     0.7083     3.1315 </r>
       <r>     3.2702     0.7437     3.1975 </r>
       <r>     3.3590     0.7168     3.2612 </r>
       <r>     3.4477     0.5873     3.3133 </r>
       <r>     3.5365     0.4455     3.3528 </r>
       <r>     3.6253     0.7955     3.4234 </r>
       <r>     3.7140     0.5433     3.4716 </r>
       <r>     3.8028     0.5407     3.5196 </r>
       <r>     3.8915     0.8211     3.5925 </r>
       <r>     3.9803     0.5563     3.6419 </r>
       <r>     4.0690     0.6597     3.7004 </r>
       <r>     4.1578     0.8727     3.7779 </r>
       <r>     4.2466     0.5578     3.8274 </r>
       <r>     4.3353     0.3352     3.8572 </r>
       <r>     4.4241     0.7982     3.9280 </r>
       <r>     4.5128     0.6935     3.9896 </r>
       <r>     4.6016     0.7322     4.0546 </r>
       <r>     4.6904     0.7865     4.1244 </r>
       <r>     4.7791     0.4588     4.1651 </r>
       <r>     4.8679     0.3871     4.1994 </r>
       <r>     4.9566     0.9709     4.2856 </r>
       <r>     5.0454     1.1574     4.3884 </r>
       <r>     5.1341     0.8491     4.4637 </r>
       <r>     5.2229     0.8254     4.5370 </r>
       <r>     5.3117     0.5942     4.5897 </r>
       <r>     5.4004     0.0841     4.5972 </r>
       <r>     5.4892     0.5474     4.6458 </r>
       <r>     5.5779     0.9606     4.7310 </r>
       <r>     5.6667     0.8953     4.8105 </r>
       <r>     5.7554     0.6859     4.8714 </r>
       <r>     5.8442     0.6758     4.9314 </r>
       <r>     5.9330     0.5094     4.9766 </r>
       <r>     6.0217     0.9008     5.0565 </r>
       <r>     6.1105     0.7467     5.1228 </r>
       <r>     6.1992     1.0669     5.2175 </r>
       <r>     6.2880     1.1116     5.3162 </r>
       <r>     6.3768     0.6324     5.3723 </r>
       <r>     6.4655     0.3908     5.4070 </r>
       <r>     6.5543     0.8796     5.4851 </r>
       <r>     6.6430     1.0508     5.5783 </r>
       <r>     6.7318     0.7999     5.6493 </r>
       <r>     6.8205     0.4561     5.6898 </r>
       <r>     6.9093     0.3896     5.7244 </r>
       <r>     6.9981     0.8070     5.7960 </r>
       <r>     7.0868     0.9939     5.8842 </r>
       <r>     7.1756     0.9596     5.9694 </r>
       <r>     7.2643     0.9784     6.0562 </r>
       <r>     7.3531     1.0616     6.1505 </r>
       <r>     7.4419     0.6113     6.2047 </r>
       <r>     7.5306     0.5352     6.2522 </r>
       <r>     7.6194     0.6456     6.3095 </r>
       <r>     7.7081     1.0315     6.4011 </r>
       <r>     7.7969     1.1825     6.5060 </r>
       <r>     7.8856     0.6222     6.5613 </r>
       <r>     7.9744     0.6049     6.6150 </r>
       <r>     8.0632     1.0403     6.7073 </r>
       <r>     8.1519     0.9655     6.7930 </r>
       <r>     8.2407     0.6982     6.8550 </r>
       <r>     8.3294     0.9687     6.9409 </r>
       <r>     8.4182     0.8920     7.0201 </r>
       <r>     8.5069     1.0375     7.1122 </r>
       <r>     8.5957     0.9364     7.1953 </r>
       <r>     8.6845     0.4094     7.2316 </r>
       <r>     8.7732     0.8424     7.3064 </r>
       <r>     8.8620     1.2020     7.4131 </r>
       <r>     8.9507     1.0325     7.5047 </r>
       <r>     9.0395     0.9421     7.5884 </r>
       <r>     9.1283     0.8962     7.6679 </r>
       <r>     9.2170     0.9242     7.7499 </r>
       <r>     9.3058     0.6910     7.8113 </r>
       <r>     9.3945     1.1737     7.9154 </r>
       <r>     9.4833     0.9418     7.9990 </r>
       <r>     9.5720     0.9562     8.0839 </r>
       <r>     9.6608     0.9959     8.1723 </r>
       <r>     9.7496     1.0173     8.2626 </r>
       <r>     9.8383     0.5586     8.3122 </r>
       <r>     9.9271     1.3543     8.4324 </r>
       <r>    10.0158     1.1896     8.5380 </r>
       <r>    10.1046     0.9538     8.6226 </r>
       <r>    10.1934     1.0328     8.7143 </r>
       <r>    10.2821     0.1754     8.7299 </r>
       <r>    10.3709     0.4146     8.7667 </r>
       <r>    10.4596     1.0973     8.8641 </r>
       <r>    10.5484     0.8483     8.9394 </r>
       <r>    10.6371     1.1068     9.0376 </r>
       <r>    10.7259     1.0705     9.1326 </r>
       <r>    10.8147     1.0896     9.2293 </r>
       <r>    10.9034     0.8478     9.3046 </r>
       <r>    10.9922     1.0985     9.4021 </r>
       <r>    11.0809     0.8943     9.4814 </r>
       <r>    11.1697     0.6303     9.5374 </r>
       <r>    11.2584     0.7311     9.6023 </r>
       <r>    11.3472     1.2031     9.7091 </r>
       <r>    11.4360     0.4536     9.7493 </r>
       <r>    11.5247     0.7851     9.8190 </r>
       <r>    11.6135     0.9041     9.8992 </r>
       <r>    11.7022     0.9806     9.9863 </r>
       <r>    11.7910     0.4872    10.0295 </r>
       <r>    11.8798     0.7559    10.0966 </r>
       <r>    11.9685     1.4646    10.2266 </r>
       <r>    12.0573     1.7873    10.3853 </r>
       <r>    12.1460     0.7863    10.4550 </r>
       <r>    12.2348     0.5059    10.4999 </r>
       <r>    12.3235     0.7913    10.5702 </r>
       <r>    12.4123     0.9184    10.6517 </r>
       <r>    12.5011     0.5651    10.7018 </r>
       <r>    12.5898     1.2925    10.8166 </r>
       <r>    12.6786     1.4034    10.9411 </r>
       <r>    12.7673     0.6769    11.0012 </r>
       <r>    12.8561     0.7277    11.0658 </r>
       <r>    12.9449     0.9153    11.1470 </r>
       <r>    13.0336     0.7592    11.2144 </r>
       <r>    13.1224     1.1095    11.3129 </r>
       <r>    13.2111     1.1817    11.4178 </r>
       <r>    13.2999     1.0827    11.5139 </r>
       <r>    13.3886     0.8774    11.5918 </r>
       <r>    13.4774     1.2477    11.7025 </r>
       <r>    13.5662     0.8406    11.7771 </r>
       <r>    13.6549     1.1427    11.8785 </r>
       <r>    13.7437     0.9795    11.9655 </r>
       <r>    13.8324     0.8920    12.0446 </r>
       <r>    13.9212     0.9300    12.1272 </r>
       <r>    14.0099     1.5582    12.2655 </r>
       <r>    14.0987     1.0777    12.3611 </r>
       <r>    14.1875     0.4803    12.4038 </r>
       <r>    14.2762     0.9771    12.4905 </r>
       <r>    14.3650     1.2640    12.6027 </r>
       <r>    14.4537     1.6370    12.7480 </r>
       <r>    14.5425     0.7683    12.8162 </r>
       <r>    14.6313     0.7333    12.8813 </r>
       <r>    14.7200     1.1616    12.9844 </r>
       <r>    14.8088     1.4478    13.1129 </r>
       <r>    14.8975     0.6168    13.1676 </r>
       <r>    14.9863     1.4055    13.2924 </r>
       <r>    15.0750     1.1089    13.3908 </r>
       <r>    15.1638     0.2820    13.4158 </r>
       <r>    15.2526     0.7937    13.4863 </r>
       <r>    15.3413     1.6070    13.6289 </r>
       <r>    15.4301     1.0007    13.7177 </r>
       <r>    15.5188     1.1870    13.8231 </r>
       <r>    15.6076     1.2020    13.9298 </r>
       <r>    15.6964     1.0825    14.0258 </r>
       <r>    15.7851     1.2629    14.1379 </r>
       <r>    15.8739     0.9153    14.2192 </r>
       <r>    15.9626     1.6721    14.3676 </r>
       <r>    16.0514     0.6857    14.4284 </r>
       <r>    16.1401     0.7219    14.4925 </r>
       <r>    16.2289     1.5384    14.6291 </r>
       <r>    16.3177     0.7523    14.6958 </r>
       <r>    16.4064     1.0069    14.7852 </r>
       <r>    16.4952     0.7948    14.8558 </r>
       <r>    16.5839     1.4117    14.9811 </r>
       <r>    16.6727     1.3519    15.1010 </r>
       <r>    16.7614     1.1516    15.2033 </r>
       <r>    16.8502     1.6955    15.3537 </r>
       <r>    16.9390     1.2784    15.4672 </r>
       <r>    17.0277     1.1650    15.5706 </r>
       <r>    17.1165     1.1344    15.6713 </r>
       <r>    17.2052     0.7877    15.7412 </r>
       <r>    17.2940     0.4414    15.7804 </r>
       <r>    17.3828     0.3196    15.8088 </r>
       <r>    17.4715     0.5706    15.8594 </r>
       <r>    17.5603     0.4963    15.9035 </r>
       <r>    17.6490     0.1575    15.9174 </r>
       <r>    17.7378     0.2105    15.9361 </r>
       <r>    17.8265     0.1000    15.9450 </r>
       <r>    17.9153     0.0556    15.9500 </r>
       <r>    18.0041     0.2880    15.9755 </r>
       <r>    18.0928     0.1162    15.9858 </r>
       <r>    18.1816    -0.0182    15.9842 </r>
       <r>    18.2703     0.0016    15.9844 </r>
       <r>    18.3591     0.0002    15.9844 </r>
       <r>    18.4479     0.0000    15.9844 </r>
       <r>    18.5366     0.0000    15.9844 </r>
       <r>    18.6254     0.0000    15.9844 </r>
       <r>    18.7141     0.0006    15.9844 </r>
       <r>    18.8029    -0.0055    15.9839 </r>
       <r>    18.8916     0.0290    15.9865 </r>
       <r>    18.9804     0.1040    15.9958 </r>
       <r>    19.0692     0.0057    15.9963 </r>
       <r>    19.1579    -0.0024    15.9961 </r>
       <r>    19.2467     0.0004    15.9961 </r>
       <r>    19.3354     0.0000    15.9961 </r>
       <r>    19.4242     0.0000    15.9961 </r>
       <r>    19.5129     0.0000    15.9961 </r>
       <r>    19.6017     0.0002    15.9961 </r>
       <r>    19.6905    -0.0018    15.9959 </r>
       <r>    19.7792     0.0098    15.9968 </r>
       <r>    19.8680     0.0346    15.9999 </r>
       <r>    19.9567     0.0019    16.0001 </r>
       <r>    20.0455    -0.0008    16.0000 </r>
       <r>    20.1343     0.0001    16.0000 </r>
       <r>    20.2230     0.0000    16.0000 </r>
       <r>    20.3118     0.0000    16.0000 </r>
       <r>    20.4005     0.0000    16.0000 </r>
       <r>    20.4893     0.0000    16.0000 </r>
       <r>    20.5780     0.0000    16.0000 </r>
       <r>    20.6668     0.0000    16.0000 </r>
       <r>    20.7556     0.0000    16.0000 </r>
       <r>    20.8443     0.0000    16.0000 </r>
       <r>    20.9331     0.0000    16.0000 </r>
       <r>    21.0218     0.0000    16.0000 </r>
      </set>
     </set>
    </array>
   </total>
  </dos>
 </calculation>
 <structure name="finalpos" >
  <crystal>
   <varray name="basis" >
    <v>       3.11421633       0.00000000       0.00000000 </v>
    <v>       0.00000000       3.11421633       0.00000000 </v>
    <v>       0.00000000       0.00000000       3.11421633 </v>
   </varray>
   <i name="volume">     30.20273909 </i>
   <varray name="rec_basis" >
    <v>       0.32110807       0.00000000       0.00000000 </v>
    <v>       0.00000000       0.32110807       0.00000000 </v>
    <v>       0.00000000       0.00000000       0.32110807 </v>
   </varray>
  </crystal>
  <varray name="positions" >
   <v>       0.00000000       0.00000000       0.00000000 </v>
   <v>       0.50000000       0.50000000       0.50000000 </v>
  </varray>
 </structure>
</modeling>
