<?xml version="1.0" encoding="ISO-8859-1"?>
<modeling>
 <generator>
  <i name="program" type="string">vasp </i>
  <i name="version" type="string">5.4.1  </i>
  <i name="subversion" type="string">24Jun15 (build Jul  8 2015 13:29:37) complex                          parallel </i>
  <i name="platform" type="string">FX10FRT </i>
  <i name="date" type="string">2016 02 20 </i>
  <i name="time" type="string">07:09:27 </i>
 </generator>
 <incar>
  <i type="string" name="PREC">accurate</i>
  <i type="string" name="ALGO"> Normal</i>
  <i type="int" name="ISPIN">     1</i>
  <i type="int" name="IBRION">    -1</i>
  <i name="EDIFF">      0.00010000</i>
  <i type="int" name="NSW">     0</i>
  <i type="int" name="ISIF">     2</i>
  <i name="ENCUT">    400.00000000</i>
  <i type="int" name="ISMEAR">     2</i>
  <i name="SIGMA">      0.10000000</i>
  <i type="int" name="NWRITE">     1</i>
  <v type="int" name="KPOINT_BSE">    -1     0     0     0</v>
 </incar>
 <kpoints>
  <generation param="Monkhorst-Pack">
   <v type="int" name="divisions">       9        9        9 </v>
   <v name="usershift">      0.00000000       0.00000000       0.00000000 </v>
   <v name="genvec1">      0.11111111       0.00000000       0.00000000 </v>
   <v name="genvec2">      0.00000000       0.11111111       0.00000000 </v>
   <v name="genvec3">      0.00000000       0.00000000       0.11111111 </v>
   <v name="shift">      0.00000000       0.00000000       0.00000000 </v>
  </generation>
  <varray name="kpointlist" >
   <v>       0.00000000       0.00000000       0.00000000 </v>
   <v>       0.11111111       0.00000000       0.00000000 </v>
   <v>       0.22222222       0.00000000       0.00000000 </v>
   <v>       0.33333333       0.00000000       0.00000000 </v>
   <v>       0.44444444       0.00000000       0.00000000 </v>
   <v>       0.00000000       0.11111111       0.00000000 </v>
   <v>       0.11111111       0.11111111       0.00000000 </v>
   <v>       0.22222222       0.11111111       0.00000000 </v>
   <v>       0.33333333       0.11111111       0.00000000 </v>
   <v>       0.44444444       0.11111111       0.00000000 </v>
   <v>       0.00000000       0.22222222       0.00000000 </v>
   <v>       0.11111111       0.22222222       0.00000000 </v>
   <v>       0.22222222       0.22222222       0.00000000 </v>
   <v>       0.33333333       0.22222222       0.00000000 </v>
   <v>       0.44444444       0.22222222       0.00000000 </v>
   <v>       0.00000000       0.33333333       0.00000000 </v>
   <v>       0.11111111       0.33333333       0.00000000 </v>
   <v>       0.22222222       0.33333333       0.00000000 </v>
   <v>       0.33333333       0.33333333       0.00000000 </v>
   <v>       0.44444444       0.33333333       0.00000000 </v>
   <v>       0.00000000       0.44444444       0.00000000 </v>
   <v>       0.11111111       0.44444444       0.00000000 </v>
   <v>       0.22222222       0.44444444       0.00000000 </v>
   <v>       0.33333333       0.44444444       0.00000000 </v>
   <v>       0.44444444       0.44444444       0.00000000 </v>
   <v>       0.00000000       0.11111111       0.11111111 </v>
   <v>       0.11111111       0.11111111       0.11111111 </v>
   <v>       0.22222222       0.11111111       0.11111111 </v>
   <v>       0.33333333       0.11111111       0.11111111 </v>
   <v>       0.44444444       0.11111111       0.11111111 </v>
   <v>       0.00000000       0.22222222       0.11111111 </v>
   <v>       0.11111111       0.22222222       0.11111111 </v>
   <v>       0.22222222       0.22222222       0.11111111 </v>
   <v>       0.33333333       0.22222222       0.11111111 </v>
   <v>       0.44444444       0.22222222       0.11111111 </v>
   <v>       0.00000000       0.33333333       0.11111111 </v>
   <v>       0.11111111       0.33333333       0.11111111 </v>
   <v>       0.22222222       0.33333333       0.11111111 </v>
   <v>       0.33333333       0.33333333       0.11111111 </v>
   <v>       0.44444444       0.33333333       0.11111111 </v>
   <v>       0.00000000       0.44444444       0.11111111 </v>
   <v>       0.11111111       0.44444444       0.11111111 </v>
   <v>       0.22222222       0.44444444       0.11111111 </v>
   <v>       0.33333333       0.44444444       0.11111111 </v>
   <v>       0.44444444       0.44444444       0.11111111 </v>
   <v>       0.00000000       0.22222222       0.22222222 </v>
   <v>       0.11111111       0.22222222       0.22222222 </v>
   <v>       0.22222222       0.22222222       0.22222222 </v>
   <v>       0.33333333       0.22222222       0.22222222 </v>
   <v>       0.44444444       0.22222222       0.22222222 </v>
   <v>       0.00000000       0.33333333       0.22222222 </v>
   <v>       0.11111111       0.33333333       0.22222222 </v>
   <v>       0.22222222       0.33333333       0.22222222 </v>
   <v>       0.33333333       0.33333333       0.22222222 </v>
   <v>       0.44444444       0.33333333       0.22222222 </v>
   <v>       0.00000000       0.44444444       0.22222222 </v>
   <v>       0.11111111       0.44444444       0.22222222 </v>
   <v>       0.22222222       0.44444444       0.22222222 </v>
   <v>       0.33333333       0.44444444       0.22222222 </v>
   <v>       0.44444444       0.44444444       0.22222222 </v>
   <v>       0.00000000       0.33333333       0.33333333 </v>
   <v>       0.11111111       0.33333333       0.33333333 </v>
   <v>       0.22222222       0.33333333       0.33333333 </v>
   <v>       0.33333333       0.33333333       0.33333333 </v>
   <v>       0.44444444       0.33333333       0.33333333 </v>
   <v>       0.00000000       0.44444444       0.33333333 </v>
   <v>       0.11111111       0.44444444       0.33333333 </v>
   <v>       0.22222222       0.44444444       0.33333333 </v>
   <v>       0.33333333       0.44444444       0.33333333 </v>
   <v>       0.44444444       0.44444444       0.33333333 </v>
   <v>       0.00000000       0.44444444       0.44444444 </v>
   <v>       0.11111111       0.44444444       0.44444444 </v>
   <v>       0.22222222       0.44444444       0.44444444 </v>
   <v>       0.33333333       0.44444444       0.44444444 </v>
   <v>       0.44444444       0.44444444       0.44444444 </v>
  </varray>
  <varray name="weights" >
   <v>       0.00137174 </v>
   <v>       0.00274348 </v>
   <v>       0.00274348 </v>
   <v>       0.00274348 </v>
   <v>       0.00274348 </v>
   <v>       0.00548697 </v>
   <v>       0.01097394 </v>
   <v>       0.01097394 </v>
   <v>       0.01097394 </v>
   <v>       0.01097394 </v>
   <v>       0.00548697 </v>
   <v>       0.01097394 </v>
   <v>       0.01097394 </v>
   <v>       0.01097394 </v>
   <v>       0.01097394 </v>
   <v>       0.00548697 </v>
   <v>       0.01097394 </v>
   <v>       0.01097394 </v>
   <v>       0.01097394 </v>
   <v>       0.01097394 </v>
   <v>       0.00548697 </v>
   <v>       0.01097394 </v>
   <v>       0.01097394 </v>
   <v>       0.01097394 </v>
   <v>       0.01097394 </v>
   <v>       0.00548697 </v>
   <v>       0.01097394 </v>
   <v>       0.01097394 </v>
   <v>       0.01097394 </v>
   <v>       0.01097394 </v>
   <v>       0.01097394 </v>
   <v>       0.02194787 </v>
   <v>       0.02194787 </v>
   <v>       0.02194787 </v>
   <v>       0.02194787 </v>
   <v>       0.01097394 </v>
   <v>       0.02194787 </v>
   <v>       0.02194787 </v>
   <v>       0.02194787 </v>
   <v>       0.02194787 </v>
   <v>       0.01097394 </v>
   <v>       0.02194787 </v>
   <v>       0.02194787 </v>
   <v>       0.02194787 </v>
   <v>       0.02194787 </v>
   <v>       0.00548697 </v>
   <v>       0.01097394 </v>
   <v>       0.01097394 </v>
   <v>       0.01097394 </v>
   <v>       0.01097394 </v>
   <v>       0.01097394 </v>
   <v>       0.02194787 </v>
   <v>       0.02194787 </v>
   <v>       0.02194787 </v>
   <v>       0.02194787 </v>
   <v>       0.01097394 </v>
   <v>       0.02194787 </v>
   <v>       0.02194787 </v>
   <v>       0.02194787 </v>
   <v>       0.02194787 </v>
   <v>       0.00548697 </v>
   <v>       0.01097394 </v>
   <v>       0.01097394 </v>
   <v>       0.01097394 </v>
   <v>       0.01097394 </v>
   <v>       0.01097394 </v>
   <v>       0.02194787 </v>
   <v>       0.02194787 </v>
   <v>       0.02194787 </v>
   <v>       0.02194787 </v>
   <v>       0.00548697 </v>
   <v>       0.01097394 </v>
   <v>       0.01097394 </v>
   <v>       0.01097394 </v>
   <v>       0.01097394 </v>
  </varray>
 </kpoints>
 <parameters>
  <separator name="general" >
   <i type="string" name="SYSTEM">unknown system</i>
   <i type="logical" name="LCOMPAT"> F  </i>
  </separator>
  <separator name="electronic" >
   <i type="string" name="PREC">accura</i>
   <i name="ENMAX">    400.00000000</i>
   <i name="ENAUG">    322.06900000</i>
   <i name="EDIFF">      0.00010000</i>
   <i type="int" name="IALGO">    38</i>
   <i type="int" name="IWAVPR">    10</i>
   <i type="int" name="NBANDS">    24</i>
   <i name="NELECT">     32.00000000</i>
   <i type="int" name="TURBO">     0</i>
   <i type="int" name="IRESTART">     0</i>
   <i type="int" name="NREBOOT">     0</i>
   <i type="int" name="NMIN">     0</i>
   <i name="EREF">      0.00000000</i>
   <separator name="electronic smearing" >
    <i type="int" name="ISMEAR">     2</i>
    <i name="SIGMA">      0.10000000</i>
    <i name="KSPACING">      0.50000000</i>
    <i type="logical" name="KGAMMA"> T  </i>
   </separator>
   <separator name="electronic projectors" >
    <i type="logical" name="LREAL"> F  </i>
    <v name="ROPT">      0.00000000</v>
    <i type="int" name="LMAXPAW">  -100</i>
    <i type="int" name="LMAXMIX">     2</i>
    <i type="logical" name="NLSPLINE"> F  </i>
   </separator>
   <separator name="electronic startup" >
    <i type="int" name="ISTART">     0</i>
    <i type="int" name="ICHARG">     2</i>
    <i type="int" name="INIWAV">     1</i>
   </separator>
   <separator name="electronic spin" >
    <i type="int" name="ISPIN">     1</i>
    <i type="logical" name="LNONCOLLINEAR"> F  </i>
    <v name="MAGMOM">      1.00000000      1.00000000      1.00000000      1.00000000      1.00000000      1.00000000      1.00000000      1.00000000</v>
    <i name="NUPDOWN">     -1.00000000</i>
    <i type="logical" name="LSORBIT"> F  </i>
    <v name="SAXIS">      0.00000000      0.00000000      1.00000000</v>
    <i type="logical" name="LSPIRAL"> F  </i>
    <v name="QSPIRAL">      0.00000000      0.00000000      0.00000000</v>
    <i type="logical" name="LZEROZ"> F  </i>
   </separator>
   <separator name="electronic exchange-correlation" >
    <i type="logical" name="LASPH"> F  </i>
    <i type="logical" name="LMETAGGA"> F  </i>
   </separator>
   <separator name="electronic convergence" >
    <i type="int" name="NELM">    60</i>
    <i type="int" name="NELMDL">    -5</i>
    <i type="int" name="NELMIN">     2</i>
    <i name="ENINI">    400.00000000</i>
    <separator name="electronic convergence detail" >
     <i type="logical" name="LDIAG"> T  </i>
     <i type="logical" name="LSUBROT"> F  </i>
     <i name="WEIMIN">      0.00000000</i>
     <i name="EBREAK">      0.00000104</i>
     <i name="DEPER">      0.30000000</i>
     <i type="int" name="NRMM">     4</i>
     <i name="TIME">      0.40000000</i>
    </separator>
   </separator>
   <separator name="electronic mixer" >
    <i name="AMIX">      0.40000000</i>
    <i name="BMIX">      1.00000000</i>
    <i name="AMIN">      0.10000000</i>
    <i name="AMIX_MAG">      1.60000000</i>
    <i name="BMIX_MAG">      1.00000000</i>
    <separator name="electronic mixer details" >
     <i type="int" name="IMIX">     4</i>
     <i type="logical" name="MIXFIRST"> F  </i>
     <i type="int" name="MAXMIX">   -45</i>
     <i name="WC">    100.00000000</i>
     <i type="int" name="INIMIX">     1</i>
     <i type="int" name="MIXPRE">     1</i>
     <i type="int" name="MREMOVE">     5</i>
    </separator>
   </separator>
   <separator name="electronic dipolcorrection" >
    <i type="logical" name="LDIPOL"> F  </i>
    <i type="logical" name="LMONO"> F  </i>
    <i type="int" name="IDIPOL">     0</i>
    <i name="EPSILON">      1.00000000</i>
    <v name="DIPOL">   -100.00000000   -100.00000000   -100.00000000</v>
    <i name="EFIELD">      0.00000000</i>
   </separator>
  </separator>
  <separator name="grids" >
   <i type="int" name="NGX">    36</i>
   <i type="int" name="NGY">    36</i>
   <i type="int" name="NGZ">    36</i>
   <i type="int" name="NGXF">    72</i>
   <i type="int" name="NGYF">    72</i>
   <i type="int" name="NGZF">    72</i>
   <i type="logical" name="ADDGRID"> F  </i>
  </separator>
  <separator name="ionic" >
   <i type="int" name="NSW">     0</i>
   <i type="int" name="IBRION">    -1</i>
   <i type="int" name="ISIF">     2</i>
   <i name="PSTRESS">      0.00000000</i>
   <i name="EDIFFG">      0.00100000</i>
   <i type="int" name="NFREE">     0</i>
   <i name="POTIM">      0.50000000</i>
   <i name="SMASS">     -3.00000000</i>
   <i name="SCALEE">      1.00000000</i>
  </separator>
  <separator name="ionic md" >
   <i name="TEBEG">      0.00010000</i>
   <i name="TEEND">      0.00010000</i>
   <i type="int" name="NBLOCK">     1</i>
   <i type="int" name="KBLOCK">     1</i>
   <i type="int" name="NPACO">   256</i>
   <i name="APACO">     16.00000000</i>
  </separator>
  <separator name="symmetry" >
   <i type="int" name="ISYM">     2</i>
   <i name="SYMPREC">      0.00001000</i>
  </separator>
  <separator name="dos" >
   <i type="logical" name="LORBIT"> F  </i>
   <v name="RWIGS">     -1.00000000</v>
   <i type="int" name="NEDOS">   301</i>
   <i name="EMIN">     10.00000000</i>
   <i name="EMAX">    -10.00000000</i>
   <i name="EFERMI">      0.00000000</i>
  </separator>
  <separator name="writing" >
   <i type="int" name="NWRITE">     1</i>
   <i type="logical" name="LWAVE"> T  </i>
   <i type="logical" name="LCHARG"> T  </i>
   <i type="logical" name="LPARD"> F  </i>
   <i type="logical" name="LVTOT"> F  </i>
   <i type="logical" name="LVHAR"> F  </i>
   <i type="logical" name="LELF"> F  </i>
   <i type="logical" name="LOPTICS"> F  </i>
   <v name="STM">      0.00000000      0.00000000      0.00000000      0.00000000      0.00000000      0.00000000      0.00000000</v>
  </separator>
  <separator name="performance" >
   <i type="int" name="NPAR">     8</i>
   <i type="int" name="NSIM">     4</i>
   <i type="int" name="NBLK">    -1</i>
   <i type="logical" name="LPLANE"> T  </i>
   <i type="logical" name="LSCALAPACK"> T  </i>
   <i type="logical" name="LSCAAWARE"> F  </i>
   <i type="logical" name="LSCALU"> F  </i>
   <i type="logical" name="LASYNC"> F  </i>
   <i type="logical" name="LORBITALREAL"> F  </i>
  </separator>
  <separator name="miscellaneous" >
   <i type="int" name="IDIOT">     3</i>
   <i type="logical" name="LMUSIC"> F  </i>
   <v name="POMASS">     28.08500000</v>
   <v name="DARWINR">      0.00000000</v>
   <v name="DARWINV">      1.00000000</v>
   <i type="logical" name="LCORR"> T  </i>
  </separator>
  <i type="logical" name="GGA_COMPAT"> T  </i>
  <i type="logical" name="LBERRY"> F  </i>
  <i type="int" name="ICORELEVEL">     0</i>
  <i type="logical" name="LDAU"> F  </i>
  <i type="int" name="I_CONSTRAINED_M">     0</i>
  <separator name="electronic exchange-correlation" >
   <i type="string" name="GGA">--</i>
   <i type="int" name="VOSKOWN">     0</i>
   <i type="logical" name="LHFCALC"> F  </i>
   <i type="string" name="PRECFOCK"></i>
   <i type="logical" name="LSYMGRAD"> F  </i>
   <i type="logical" name="LHFONE"> F  </i>
   <i type="logical" name="LRHFCALC"> F  </i>
   <i type="logical" name="LTHOMAS"> F  </i>
   <i type="logical" name="LMODELHF"> F  </i>
   <i name="ENCUT4O">     -1.00000000</i>
   <i type="int" name="EXXOEP">     0</i>
   <i type="int" name="FOURORBIT">     0</i>
   <i name="AEXX">      0.00000000</i>
   <i name="HFALPHA">      0.00000000</i>
   <i name="MCALPHA">      0.00000000</i>
   <i name="ALDAX">      1.00000000</i>
   <i name="AGGAX">      1.00000000</i>
   <i name="ALDAC">      1.00000000</i>
   <i name="AGGAC">      1.00000000</i>
   <i type="int" name="NKREDX">     1</i>
   <i type="int" name="NKREDY">     1</i>
   <i type="int" name="NKREDZ">     1</i>
   <i type="logical" name="SHIFTRED"> F  </i>
   <i type="logical" name="ODDONLY"> F  </i>
   <i type="logical" name="EVENONLY"> F  </i>
   <i type="int" name="LMAXFOCK">     0</i>
   <i type="int" name="NMAXFOCKAE">     0</i>
   <i type="logical" name="LFOCKAEDFT"> F  </i>
   <i name="HFSCREEN">      0.00000000</i>
   <i name="HFSCREENC">      0.00000000</i>
   <i type="int" name="NBANDSGWLOW">     0</i>
  </separator>
  <separator name="vdW DFT" >
   <i type="logical" name="LUSE_VDW"> F  </i>
   <i name="Zab_VDW">     -0.84910000</i>
   <i name="PARAM1">      0.12340000</i>
   <i name="PARAM2">      1.00000000</i>
   <i name="PARAM3">      0.00000000</i>
  </separator>
  <separator name="model GW" >
   <i type="int" name="MODEL_GW">     0</i>
   <i name="MODEL_EPS0">     12.38769526</i>
   <i name="MODEL_ALPHA">      1.00000000</i>
  </separator>
  <separator name="linear response parameters" >
   <i type="logical" name="LEPSILON"> F  </i>
   <i type="logical" name="LRPA"> F  </i>
   <i type="logical" name="LNABLA"> F  </i>
   <i type="logical" name="LVEL"> F  </i>
   <i type="int" name="KINTER">     0</i>
   <i name="CSHIFT">      0.10000000</i>
   <i name="OMEGAMAX">     -1.00000000</i>
   <i name="DEG_THRESHOLD">      0.00200000</i>
  </separator>
  <separator name="orbital magnetization" >
   <i type="logical" name="NUCIND"> F  </i>
   <v name="MAGPOS">      0.00000000      0.00000000      0.00000000</v>
   <i type="logical" name="LNICSALL"> T  </i>
   <i type="logical" name="ORBITALMAG"> F  </i>
   <i type="logical" name="LMAGBLOCH"> F  </i>
   <i type="logical" name="LCHIMAG"> F  </i>
   <i type="logical" name="LGAUGE"> T  </i>
   <i type="int" name="MAGATOM">     0</i>
   <v name="MAGDIPOL">      0.00000000      0.00000000      0.00000000</v>
   <v name="AVECCONST">      0.00000000      0.00000000      0.00000000</v>
  </separator>
  <separator name="response functions" >
   <i type="logical" name="LADDER"> F  </i>
   <i type="logical" name="LFXC"> F  </i>
   <i type="logical" name="LHARTREE"> T  </i>
   <i type="int" name="IBSE">     0</i>
   <v type="int" name="KPOINT">    -1     0     0     0</v>
   <i type="logical" name="LTCTE"> F  </i>
   <i type="logical" name="LTETE"> F  </i>
   <i type="logical" name="LTRIPLET"> F  </i>
   <i type="logical" name="LFXCEPS"> F  </i>
   <i type="logical" name="LFXHEG"> F  </i>
   <i type="int" name="NATURALO">     0</i>
   <i type="logical" name="L2ORDER"> F  </i>
   <i type="logical" name="LUSEW"> F  </i>
   <i name="ENCUTGW">     -2.00000000</i>
   <i name="ENCUTGWSOFT">     -2.00000000</i>
   <i name="ENCUTLF">     -1.00000000</i>
   <i type="int" name="LMAXMP2">    -1</i>
   <i name="SCISSOR">      0.00000000</i>
   <i type="int" name="NOMEGA">     0</i>
   <i type="int" name="NOMEGAR">     0</i>
   <i type="int" name="NBANDSGW">    -1</i>
   <i type="int" name="NBANDSO">    -1</i>
   <i type="int" name="NBANDSV">    -1</i>
   <i type="int" name="NELM">     1</i>
   <i type="int" name="NELMHF">     1</i>
   <i type="int" name="DIM">     3</i>
   <i type="int" name="ANTIRES">     0</i>
   <i name="OMEGAMAX">    -30.00000000</i>
   <i name="OMEGAMIN">    -30.00000000</i>
   <i name="OMEGATL">   -200.00000000</i>
   <i type="int" name="OMEGAGRID">     0</i>
   <i name="CSHIFT">     -0.10000000</i>
   <i type="logical" name="SELFENERGY"> F  </i>
   <i type="logical" name="LSPECTRAL"> F  </i>
   <i type="logical" name="LSPECTRALGW"> F  </i>
   <i type="logical" name="LSINGLES"> F  </i>
   <i type="logical" name="LFERMIGW"> F  </i>
   <i type="logical" name="ODDONLYGW"> F  </i>
   <i type="logical" name="EVENONLYGW"> F  </i>
   <i type="int" name="NKREDLFX">     1</i>
   <i type="int" name="NKREDLFY">     1</i>
   <i type="int" name="NKREDLFZ">     1</i>
   <i type="int" name="MAXMEM">  1800</i>
   <i type="int" name="TELESCOPE">     0</i>
   <i type="int" name="TAUPAR">     1</i>
   <i type="int" name="OMEGAPAR">    -1</i>
   <i name="LAMBDA">      1.00000000</i>
  </separator>
  <separator name="External order field" >
   <i name="OFIELD_KAPPA">      0.00000000</i>
   <v name="OFIELD_K">      0.00000000      0.00000000      0.00000000</v>
   <i name="OFIELD_Q6_NEAR">      0.00000000</i>
   <i name="OFIELD_Q6_FAR">      0.00000000</i>
   <i name="OFIELD_A">      0.00000000</i>
  </separator>
 </parameters>
 <atominfo>
  <atoms>       8 </atoms>
  <types>       1 </types>
  <array name="atoms" >
   <dimension dim="1">ion</dimension>
   <field type="string">element</field>
   <field type="int">atomtype</field>
   <set>
    <rc><c>Si</c><c>   1</c></rc>
    <rc><c>Si</c><c>   1</c></rc>
    <rc><c>Si</c><c>   1</c></rc>
    <rc><c>Si</c><c>   1</c></rc>
    <rc><c>Si</c><c>   1</c></rc>
    <rc><c>Si</c><c>   1</c></rc>
    <rc><c>Si</c><c>   1</c></rc>
    <rc><c>Si</c><c>   1</c></rc>
   </set>
  </array>
  <array name="atomtypes" >
   <dimension dim="1">type</dimension>
   <field type="int">atomspertype</field>
   <field type="string">element</field>
   <field>mass</field>
   <field>valence</field>
   <field type="string">pseudopotential</field>
   <set>
    <rc><c>   8</c><c>Si</c><c>     28.08500000</c><c>      4.00000000</c><c>  PAW_PBE Si 05Jan2001                  </c></rc>
   </set>
  </array>
 </atominfo>
 <structure name="initialpos" >
  <crystal>
   <varray name="basis" >
    <v>       5.41327970       0.00000000       0.00000000 </v>
    <v>       0.00000000       5.52375479       0.00000000 </v>
    <v>       0.00000000       0.00000000       5.52375479 </v>
   </varray>
   <i name="volume">    165.16927009 </i>
   <varray name="rec_basis" >
    <v>       0.18473089       0.00000000       0.00000000 </v>
    <v>       0.00000000       0.18103628       0.00000000 </v>
    <v>       0.00000000       0.00000000       0.18103628 </v>
   </varray>
  </crystal>
  <varray name="positions" >
   <v>       0.00000000       0.00000000       0.00000000 </v>
   <v>       0.25000000       0.25000000       0.25000000 </v>
   <v>       0.50000000       0.50000000       0.00000000 </v>
   <v>       0.75000000       0.75000000       0.25000000 </v>
   <v>       0.50000000       0.00000000       0.50000000 </v>
   <v>       0.75000000       0.25000000       0.75000000 </v>
   <v>       0.00000000       0.50000000       0.50000000 </v>
   <v>       0.25000000       0.75000000       0.75000000 </v>
  </varray>
 </structure>
 <calculation>
  <scstep>
   <time name="dav">    1.82    1.88</time>
   <time name="total">    1.91    1.97</time>
   <energy>
    <i name="alphaZ">     13.04383297 </i>
    <i name="ewald">   -904.86565020 </i>
    <i name="hartreedc">    -45.86693659 </i>
    <i name="XCdc">    -74.89465526 </i>
    <i name="pawpsdc">    704.99039692 </i>
    <i name="pawaedc">   -564.24414232 </i>
    <i name="eentropy">      0.00073556 </i>
    <i name="bandstr">    104.69897691 </i>
    <i name="atom">    824.52596983 </i>
    <i name="e_fr_energy">     57.38852780 </i>
    <i name="e_wo_entrp">     57.38779225 </i>
    <i name="e_0_energy">     57.38834392 </i>
   </energy>
  </scstep>
  <scstep>
   <time name="dav">    2.22    2.23</time>
   <time name="total">    2.23    2.26</time>
   <energy>
    <i name="e_fr_energy">    -39.62938897 </i>
    <i name="e_wo_entrp">    -39.62952255 </i>
    <i name="e_0_energy">    -39.62942236 </i>
   </energy>
  </scstep>
  <scstep>
   <time name="dav">    2.16    2.19</time>
   <time name="total">    2.19    2.20</time>
   <energy>
    <i name="e_fr_energy">    -43.95439306 </i>
    <i name="e_wo_entrp">    -43.95437744 </i>
    <i name="e_0_energy">    -43.95438915 </i>
   </energy>
  </scstep>
  <scstep>
   <time name="dav">    2.12    2.13</time>
   <time name="total">    2.14    2.15</time>
   <energy>
    <i name="e_fr_energy">    -44.02953187 </i>
    <i name="e_wo_entrp">    -44.02951437 </i>
    <i name="e_0_energy">    -44.02952750 </i>
   </energy>
  </scstep>
  <scstep>
   <time name="dav">    2.19    2.19</time>
   <time name="total">    2.31    2.34</time>
   <energy>
    <i name="e_fr_energy">    -44.03135056 </i>
    <i name="e_wo_entrp">    -44.03133290 </i>
    <i name="e_0_energy">    -44.03134614 </i>
   </energy>
  </scstep>
  <scstep>
   <time name="dav">    2.03    2.05</time>
   <time name="total">    2.19    2.20</time>
   <energy>
    <i name="e_fr_energy">    -43.58404954 </i>
    <i name="e_wo_entrp">    -43.58403185 </i>
    <i name="e_0_energy">    -43.58404512 </i>
   </energy>
  </scstep>
  <scstep>
   <time name="dav">    2.03    2.03</time>
   <time name="total">    2.19    2.19</time>
   <energy>
    <i name="e_fr_energy">    -43.37577118 </i>
    <i name="e_wo_entrp">    -43.37575258 </i>
    <i name="e_0_energy">    -43.37576653 </i>
   </energy>
  </scstep>
  <scstep>
   <time name="dav">    2.11    2.11</time>
   <time name="total">    2.23    2.27</time>
   <energy>
    <i name="e_fr_energy">    -43.38037314 </i>
    <i name="e_wo_entrp">    -43.38035516 </i>
    <i name="e_0_energy">    -43.38036865 </i>
   </energy>
  </scstep>
  <scstep>
   <time name="dav">    2.19    2.20</time>
   <time name="total">    2.35    2.35</time>
   <energy>
    <i name="e_fr_energy">    -43.38120142 </i>
    <i name="e_wo_entrp">    -43.38118343 </i>
    <i name="e_0_energy">    -43.38119692 </i>
   </energy>
  </scstep>
  <scstep>
   <time name="dav">    2.05    2.05</time>
   <time name="total">    2.19    2.21</time>
   <energy>
    <i name="e_fr_energy">    -43.38142052 </i>
    <i name="e_wo_entrp">    -43.38140259 </i>
    <i name="e_0_energy">    -43.38141604 </i>
   </energy>
  </scstep>
  <scstep>
   <time name="dav">    1.62    1.61</time>
   <time name="total">    1.66    1.66</time>
   <energy>
    <i name="alphaZ">     13.04383297 </i>
    <i name="ewald">   -904.86565020 </i>
    <i name="hartreedc">    -61.10761143 </i>
    <i name="XCdc">    -72.41891067 </i>
    <i name="pawpsdc">   3237.89396924 </i>
    <i name="pawaedc">  -3097.93574600 </i>
    <i name="eentropy">     -0.00001793 </i>
    <i name="bandstr">     17.48274303 </i>
    <i name="atom">    824.52596983 </i>
    <i name="e_fr_energy">    -43.38142118 </i>
    <i name="e_wo_entrp">    -43.38140324 </i>
    <i name="e_0_energy">    -43.38141669 </i>
   </energy>
  </scstep>
  <structure>
   <crystal>
    <varray name="basis" >
     <v>       5.41327970       0.00000000       0.00000000 </v>
     <v>       0.00000000       5.52375479       0.00000000 </v>
     <v>       0.00000000       0.00000000       5.52375479 </v>
    </varray>
    <i name="volume">    165.16927009 </i>
    <varray name="rec_basis" >
     <v>       0.18473089       0.00000000       0.00000000 </v>
     <v>       0.00000000       0.18103628       0.00000000 </v>
     <v>       0.00000000       0.00000000       0.18103628 </v>
    </varray>
   </crystal>
   <varray name="positions" >
    <v>       0.00000000       0.00000000       0.00000000 </v>
    <v>       0.25000000       0.25000000       0.25000000 </v>
    <v>       0.50000000       0.50000000       0.00000000 </v>
    <v>       0.75000000       0.75000000       0.25000000 </v>
    <v>       0.50000000       0.00000000       0.50000000 </v>
    <v>       0.75000000       0.25000000       0.75000000 </v>
    <v>       0.00000000       0.50000000       0.50000000 </v>
    <v>       0.25000000       0.75000000       0.75000000 </v>
   </varray>
  </structure>
  <varray name="forces" >
   <v>       0.00000000       0.00000000       0.00000000 </v>
   <v>       0.00000000       0.00000000       0.00000000 </v>
   <v>       0.00000000       0.00000000       0.00000000 </v>
   <v>       0.00000000       0.00000000       0.00000000 </v>
   <v>       0.00000000       0.00000000       0.00000000 </v>
   <v>       0.00000000       0.00000000       0.00000000 </v>
   <v>       0.00000000       0.00000000       0.00000000 </v>
   <v>       0.00000000       0.00000000       0.00000000 </v>
  </varray>
  <varray name="stress" >
   <v>       3.81386294       0.00000000       0.00000000 </v>
   <v>       0.00000000     -15.00505342       0.00000000 </v>
   <v>       0.00000000       0.00000000     -15.00505342 </v>
  </varray>
  <energy>
   <i name="e_fr_energy">    -43.38142118 </i>
   <i name="e_wo_entrp">    -43.38141669 </i>
   <i name="e_0_energy">     -0.00001793 </i>
  </energy>
  <time name="totalsc">   26.09   26.39</time>
  <eigenvalues>
   <array>
    <dimension dim="1">band</dimension>
    <dimension dim="2">kpoint</dimension>
    <dimension dim="3">spin</dimension>
    <field>eigene</field>
    <field>occ</field>
    <set>
     <set comment="spin 1">
      <set comment="kpoint 1">
       <r>   -6.2294    1.0000 </r>
       <r>   -2.2338    1.0000 </r>
       <r>   -2.2338    1.0000 </r>
       <r>   -2.2338    1.0000 </r>
       <r>   -2.2338    1.0000 </r>
       <r>   -2.1203    1.0000 </r>
       <r>   -2.1203    1.0000 </r>
       <r>    2.6524    1.0000 </r>
       <r>    2.6524    1.0000 </r>
       <r>    2.8015    1.0000 </r>
       <r>    2.8015    1.0000 </r>
       <r>    2.8015    1.0000 </r>
       <r>    2.8015    1.0000 </r>
       <r>    5.4737    0.9963 </r>
       <r>    5.4737    0.9963 </r>
       <r>    5.6109    1.0505 </r>
       <r>    6.1856    0.0000 </r>
       <r>    6.1856    0.0000 </r>
       <r>    6.3431    0.0000 </r>
       <r>    6.3431    0.0000 </r>
       <r>    6.3431    0.0000 </r>
       <r>    6.3431    0.0000 </r>
       <r>    8.0239    0.0000 </r>
       <r>    8.0992    0.0000 </r>
      </set>
      <set comment="kpoint 2">
       <r>   -6.1756    1.0000 </r>
       <r>   -2.9346    1.0000 </r>
       <r>   -2.2163    1.0000 </r>
       <r>   -2.2163    1.0000 </r>
       <r>   -2.2163    1.0000 </r>
       <r>   -2.2163    1.0000 </r>
       <r>   -1.2455    1.0000 </r>
       <r>    2.6486    1.0000 </r>
       <r>    2.6486    1.0000 </r>
       <r>    2.6486    1.0000 </r>
       <r>    2.6486    1.0000 </r>
       <r>    2.7011    1.0000 </r>
       <r>    2.7011    1.0000 </r>
       <r>    5.2492    1.0000 </r>
       <r>    5.2680    1.0000 </r>
       <r>    5.2680    1.0000 </r>
       <r>    6.0457    0.0000 </r>
       <r>    6.4753    0.0000 </r>
       <r>    6.6326    0.0000 </r>
       <r>    6.6326    0.0000 </r>
       <r>    6.6326    0.0000 </r>
       <r>    6.6326    0.0000 </r>
       <r>    7.8920    0.0000 </r>
       <r>    8.3677    0.0000 </r>
      </set>
      <set comment="kpoint 3">
       <r>   -6.0144    1.0000 </r>
       <r>   -3.6761    1.0000 </r>
       <r>   -2.1705    1.0000 </r>
       <r>   -2.1705    1.0000 </r>
       <r>   -2.1705    1.0000 </r>
       <r>   -2.1705    1.0000 </r>
       <r>   -0.3243    1.0000 </r>
       <r>    2.3182    1.0000 </r>
       <r>    2.3182    1.0000 </r>
       <r>    2.3182    1.0000 </r>
       <r>    2.3182    1.0000 </r>
       <r>    2.8466    1.0000 </r>
       <r>    2.8466    1.0000 </r>
       <r>    4.4604    1.0000 </r>
       <r>    4.8134    1.0000 </r>
       <r>    4.8134    1.0000 </r>
       <r>    6.0455    0.0000 </r>
       <r>    6.9216    0.0000 </r>
       <r>    7.3770    0.0000 </r>
       <r>    7.3770    0.0000 </r>
       <r>    7.3770    0.0000 </r>
       <r>    7.3770    0.0000 </r>
       <r>    7.5614    0.0000 </r>
       <r>    9.0095    0.0000 </r>
      </set>
      <set comment="kpoint 4">
       <r>   -5.7470    1.0000 </r>
       <r>   -4.3351    1.0000 </r>
       <r>   -2.1152    1.0000 </r>
       <r>   -2.1152    1.0000 </r>
       <r>   -2.1152    1.0000 </r>
       <r>   -2.1152    1.0000 </r>
       <r>    0.6284    1.0000 </r>
       <r>    2.0027    1.0000 </r>
       <r>    2.0027    1.0000 </r>
       <r>    2.0027    1.0000 </r>
       <r>    2.0027    1.0000 </r>
       <r>    3.0867    1.0000 </r>
       <r>    3.0867    1.0000 </r>
       <r>    3.5365    1.0000 </r>
       <r>    4.3050    1.0000 </r>
       <r>    4.3050    1.0000 </r>
       <r>    6.1736    0.0000 </r>
       <r>    7.1513    0.0000 </r>
       <r>    7.5247    0.0000 </r>
       <r>    8.3924    0.0000 </r>
       <r>    8.3924    0.0000 </r>
       <r>    8.3924    0.0000 </r>
       <r>    8.3924    0.0000 </r>
       <r>    9.7034    0.0000 </r>
      </set>
      <set comment="kpoint 5">
       <r>   -5.3757    1.0000 </r>
       <r>   -4.9036    1.0000 </r>
       <r>   -2.0770    1.0000 </r>
       <r>   -2.0770    1.0000 </r>
       <r>   -2.0770    1.0000 </r>
       <r>   -2.0770    1.0000 </r>
       <r>    1.5983    1.0000 </r>
       <r>    1.8183    1.0000 </r>
       <r>    1.8183    1.0000 </r>
       <r>    1.8183    1.0000 </r>
       <r>    1.8183    1.0000 </r>
       <r>    2.5724    1.0000 </r>
       <r>    3.4165    1.0000 </r>
       <r>    3.4165    1.0000 </r>
       <r>    3.8279    1.0000 </r>
       <r>    3.8279    1.0000 </r>
       <r>    6.4156    0.0000 </r>
       <r>    6.7517    0.0000 </r>
       <r>    8.2668    0.0000 </r>
       <r>    9.0796    0.0000 </r>
       <r>    9.5449    0.0000 </r>
       <r>    9.5449    0.0000 </r>
       <r>    9.5449    0.0000 </r>
       <r>    9.5449    0.0000 </r>
      </set>
      <set comment="kpoint 6">
       <r>   -6.1774    1.0000 </r>
       <r>   -3.0313    1.0000 </r>
       <r>   -2.2155    1.0000 </r>
       <r>   -2.2155    1.0000 </r>
       <r>   -2.1073    1.0000 </r>
       <r>   -2.1073    1.0000 </r>
       <r>   -1.3725    1.0000 </r>
       <r>    2.5189    1.0000 </r>
       <r>    2.5189    1.0000 </r>
       <r>    2.6580    1.0000 </r>
       <r>    2.6580    1.0000 </r>
       <r>    2.8442    1.0000 </r>
       <r>    2.8528    1.0000 </r>
       <r>    5.1210    1.0000 </r>
       <r>    5.2790    1.0000 </r>
       <r>    5.3994    0.9997 </r>
       <r>    6.2191    0.0000 </r>
       <r>    6.4550    0.0000 </r>
       <r>    6.4550    0.0000 </r>
       <r>    6.6061    0.0000 </r>
       <r>    6.6172    0.0000 </r>
       <r>    6.6172    0.0000 </r>
       <r>    7.9768    0.0000 </r>
       <r>    8.2814    0.0000 </r>
      </set>
      <set comment="kpoint 7">
       <r>   -6.1237    1.0000 </r>
       <r>   -3.0016    1.0000 </r>
       <r>   -2.9080    1.0000 </r>
       <r>   -2.2834    1.0000 </r>
       <r>   -2.1184    1.0000 </r>
       <r>   -1.3736    1.0000 </r>
       <r>   -1.2536    1.0000 </r>
       <r>    2.2442    1.0000 </r>
       <r>    2.5395    1.0000 </r>
       <r>    2.6061    1.0000 </r>
       <r>    2.6657    1.0000 </r>
       <r>    2.7347    1.0000 </r>
       <r>    2.8855    1.0000 </r>
       <r>    4.6485    1.0000 </r>
       <r>    5.0715    1.0000 </r>
       <r>    5.5002    0.9951 </r>
       <r>    6.3302    0.0000 </r>
       <r>    6.4403    0.0000 </r>
       <r>    6.5224    0.0000 </r>
       <r>    6.7253    0.0000 </r>
       <r>    6.8778    0.0000 </r>
       <r>    7.2585    0.0000 </r>
       <r>    8.1453    0.0000 </r>
       <r>    8.2814    0.0000 </r>
      </set>
      <set comment="kpoint 8">
       <r>   -5.9632    1.0000 </r>
       <r>   -3.6406    1.0000 </r>
       <r>   -2.9167    1.0000 </r>
       <r>   -2.3398    1.0000 </r>
       <r>   -1.9868    1.0000 </r>
       <r>   -1.3856    1.0000 </r>
       <r>   -0.3652    1.0000 </r>
       <r>    1.8390    1.0000 </r>
       <r>    2.2765    1.0000 </r>
       <r>    2.4874    1.0000 </r>
       <r>    2.6651    1.0000 </r>
       <r>    2.8032    1.0000 </r>
       <r>    2.8080    1.0000 </r>
       <r>    3.9236    1.0000 </r>
       <r>    4.6126    1.0000 </r>
       <r>    5.1938    1.0000 </r>
       <r>    6.3406    0.0000 </r>
       <r>    6.8381    0.0000 </r>
       <r>    7.1490    0.0000 </r>
       <r>    7.2882    0.0000 </r>
       <r>    7.5908    0.0000 </r>
       <r>    7.8352    0.0000 </r>
       <r>    8.1843    0.0000 </r>
       <r>    8.6218    0.0000 </r>
      </set>
      <set comment="kpoint 9">
       <r>   -5.6970    1.0000 </r>
       <r>   -4.2936    1.0000 </r>
       <r>   -2.7905    1.0000 </r>
       <r>   -2.4095    1.0000 </r>
       <r>   -1.8284    1.0000 </r>
       <r>   -1.4293    1.0000 </r>
       <r>    0.5370    1.0000 </r>
       <r>    1.5640    1.0000 </r>
       <r>    1.8808    1.0000 </r>
       <r>    2.2826    1.0000 </r>
       <r>    2.5603    1.0000 </r>
       <r>    2.8919    1.0000 </r>
       <r>    3.1115    1.0000 </r>
       <r>    3.1330    1.0000 </r>
       <r>    4.1006    1.0000 </r>
       <r>    4.6337    1.0000 </r>
       <r>    6.4743    0.0000 </r>
       <r>    7.4388    0.0000 </r>
       <r>    7.6742    0.0000 </r>
       <r>    7.7272    0.0000 </r>
       <r>    8.3183    0.0000 </r>
       <r>    8.5804    0.0000 </r>
       <r>    9.2192    0.0000 </r>
       <r>    9.2854    0.0000 </r>
      </set>
      <set comment="kpoint 10">
       <r>   -5.3275    1.0000 </r>
       <r>   -4.8581    1.0000 </r>
       <r>   -2.6461    1.0000 </r>
       <r>   -2.5119    1.0000 </r>
       <r>   -1.6639    1.0000 </r>
       <r>   -1.5229    1.0000 </r>
       <r>    1.4315    1.0000 </r>
       <r>    1.4784    1.0000 </r>
       <r>    1.5937    1.0000 </r>
       <r>    2.2219    1.0000 </r>
       <r>    2.3003    1.0000 </r>
       <r>    2.3287    1.0000 </r>
       <r>    3.2141    1.0000 </r>
       <r>    3.5296    1.0000 </r>
       <r>    3.6226    1.0000 </r>
       <r>    4.0479    1.0000 </r>
       <r>    6.7170    0.0000 </r>
       <r>    7.0487    0.0000 </r>
       <r>    8.4409    0.0000 </r>
       <r>    8.7596    0.0000 </r>
       <r>    9.1864    0.0000 </r>
       <r>    9.4980    0.0000 </r>
       <r>    9.6095    0.0000 </r>
       <r>   10.2621    0.0000 </r>
      </set>
      <set comment="kpoint 11">
       <r>   -6.0217    1.0000 </r>
       <r>   -3.7547    1.0000 </r>
       <r>   -2.1663    1.0000 </r>
       <r>   -2.1663    1.0000 </r>
       <r>   -2.0748    1.0000 </r>
       <r>   -2.0748    1.0000 </r>
       <r>   -0.4598    1.0000 </r>
       <r>    2.2298    1.0000 </r>
       <r>    2.2298    1.0000 </r>
       <r>    2.3430    1.0000 </r>
       <r>    2.3430    1.0000 </r>
       <r>    2.9800    1.0000 </r>
       <r>    2.9976    1.0000 </r>
       <r>    4.3396    1.0000 </r>
       <r>    4.8472    1.0000 </r>
       <r>    4.9404    1.0000 </r>
       <r>    6.2255    0.0000 </r>
       <r>    7.0149    0.0000 </r>
       <r>    7.1557    0.0000 </r>
       <r>    7.1557    0.0000 </r>
       <r>    7.3272    0.0000 </r>
       <r>    7.3272    0.0000 </r>
       <r>    7.6680    0.0000 </r>
       <r>    8.8997    0.0000 </r>
      </set>
      <set comment="kpoint 12">
       <r>   -5.9687    1.0000 </r>
       <r>   -3.7167    1.0000 </r>
       <r>   -2.8326    1.0000 </r>
       <r>   -2.3357    1.0000 </r>
       <r>   -1.9843    1.0000 </r>
       <r>   -1.2855    1.0000 </r>
       <r>   -0.4894    1.0000 </r>
       <r>    1.8498    1.0000 </r>
       <r>    2.1849    1.0000 </r>
       <r>    2.4098    1.0000 </r>
       <r>    2.7834    1.0000 </r>
       <r>    2.8352    1.0000 </r>
       <r>    2.9260    1.0000 </r>
       <r>    3.8943    1.0000 </r>
       <r>    4.6354    1.0000 </r>
       <r>    5.2243    1.0000 </r>
       <r>    6.5379    0.0000 </r>
       <r>    6.7930    0.0000 </r>
       <r>    7.0559    0.0000 </r>
       <r>    7.2650    0.0000 </r>
       <r>    7.3909    0.0000 </r>
       <r>    7.9530    0.0000 </r>
       <r>    8.1536    0.0000 </r>
       <r>    8.6462    0.0000 </r>
      </set>
      <set comment="kpoint 13">
       <r>   -5.8101    1.0000 </r>
       <r>   -3.6056    1.0000 </r>
       <r>   -3.5369    1.0000 </r>
       <r>   -2.5162    1.0000 </r>
       <r>   -1.7731    1.0000 </r>
       <r>   -0.5849    1.0000 </r>
       <r>   -0.4903    1.0000 </r>
       <r>    1.4815    1.0000 </r>
       <r>    2.2660    1.0000 </r>
       <r>    2.3542    1.0000 </r>
       <r>    2.7320    1.0000 </r>
       <r>    2.7913    1.0000 </r>
       <r>    3.1317    1.0000 </r>
       <r>    3.2021    1.0000 </r>
       <r>    4.1681    1.0000 </r>
       <r>    5.3323    1.0000 </r>
       <r>    6.7257    0.0000 </r>
       <r>    7.0814    0.0000 </r>
       <r>    7.3154    0.0000 </r>
       <r>    7.7703    0.0000 </r>
       <r>    7.9375    0.0000 </r>
       <r>    8.4501    0.0000 </r>
       <r>    8.4700    0.0000 </r>
       <r>    8.6839    0.0000 </r>
      </set>
      <set comment="kpoint 14">
       <r>   -5.5476    1.0000 </r>
       <r>   -4.1711    1.0000 </r>
       <r>   -3.4307    1.0000 </r>
       <r>   -2.7261    1.0000 </r>
       <r>   -1.5285    1.0000 </r>
       <r>   -0.7553    1.0000 </r>
       <r>    0.2874    1.0000 </r>
       <r>    1.3016    1.0000 </r>
       <r>    1.9036    1.0000 </r>
       <r>    2.4640    1.0000 </r>
       <r>    2.4841    1.0000 </r>
       <r>    2.7242    1.0000 </r>
       <r>    3.1250    1.0000 </r>
       <r>    3.1941    1.0000 </r>
       <r>    3.6498    1.0000 </r>
       <r>    4.9959    1.0000 </r>
       <r>    7.2184    0.0000 </r>
       <r>    7.2201    0.0000 </r>
       <r>    8.1360    0.0000 </r>
       <r>    8.2957    0.0000 </r>
       <r>    8.3493    0.0000 </r>
       <r>    8.7150    0.0000 </r>
       <r>    8.8892    0.0000 </r>
       <r>    9.5402    0.0000 </r>
      </set>
      <set comment="kpoint 15">
       <r>   -5.1838    1.0000 </r>
       <r>   -4.7230    1.0000 </r>
       <r>   -3.2086    1.0000 </r>
       <r>   -2.9641    1.0000 </r>
       <r>   -1.2598    1.0000 </r>
       <r>   -0.9907    1.0000 </r>
       <r>    1.0369    1.0000 </r>
       <r>    1.3277    1.0000 </r>
       <r>    1.5415    1.0000 </r>
       <r>    1.7644    1.0000 </r>
       <r>    2.7697    1.0000 </r>
       <r>    2.7850    1.0000 </r>
       <r>    2.9509    1.0000 </r>
       <r>    3.1712    1.0000 </r>
       <r>    3.7723    1.0000 </r>
       <r>    4.4091    1.0000 </r>
       <r>    7.4575    0.0000 </r>
       <r>    7.7734    0.0000 </r>
       <r>    8.1256    0.0000 </r>
       <r>    8.9360    0.0000 </r>
       <r>    9.1893    0.0000 </r>
       <r>    9.2346    0.0000 </r>
       <r>    9.5313    0.0000 </r>
       <r>   10.0461    0.0000 </r>
      </set>
      <set comment="kpoint 16">
       <r>   -5.7633    1.0000 </r>
       <r>   -4.3954    1.0000 </r>
       <r>   -2.1028    1.0000 </r>
       <r>   -2.1028    1.0000 </r>
       <r>   -2.0403    1.0000 </r>
       <r>   -2.0403    1.0000 </r>
       <r>    0.4902    1.0000 </r>
       <r>    1.9586    1.0000 </r>
       <r>    1.9586    1.0000 </r>
       <r>    2.0335    1.0000 </r>
       <r>    2.0335    1.0000 </r>
       <r>    3.2064    1.0000 </r>
       <r>    3.2341    1.0000 </r>
       <r>    3.4142    1.0000 </r>
       <r>    4.3637    1.0000 </r>
       <r>    4.4344    1.0000 </r>
       <r>    6.3516    0.0000 </r>
       <r>    7.2824    0.0000 </r>
       <r>    7.5710    0.0000 </r>
       <r>    8.1233    0.0000 </r>
       <r>    8.1233    0.0000 </r>
       <r>    8.3031    0.0000 </r>
       <r>    8.3031    0.0000 </r>
       <r>    9.6728    0.0000 </r>
      </set>
      <set comment="kpoint 17">
       <r>   -5.7115    1.0000 </r>
       <r>   -4.3518    1.0000 </r>
       <r>   -2.7216    1.0000 </r>
       <r>   -2.3958    1.0000 </r>
       <r>   -1.8199    1.0000 </r>
       <r>   -1.3577    1.0000 </r>
       <r>    0.4175    1.0000 </r>
       <r>    1.5762    1.0000 </r>
       <r>    1.8252    1.0000 </r>
       <r>    2.2598    1.0000 </r>
       <r>    2.6066    1.0000 </r>
       <r>    2.9981    1.0000 </r>
       <r>    3.0773    1.0000 </r>
       <r>    3.2234    1.0000 </r>
       <r>    4.1480    1.0000 </r>
       <r>    4.6872    1.0000 </r>
       <r>    6.6683    0.0000 </r>
       <r>    7.5794    0.0000 </r>
       <r>    7.5822    0.0000 </r>
       <r>    7.7971    0.0000 </r>
       <r>    8.0415    0.0000 </r>
       <r>    8.3294    0.0000 </r>
       <r>    9.2163    0.0000 </r>
       <r>    9.2847    0.0000 </r>
      </set>
      <set comment="kpoint 18">
       <r>   -5.5565    1.0000 </r>
       <r>   -4.2230    1.0000 </r>
       <r>   -3.3738    1.0000 </r>
       <r>   -2.7162    1.0000 </r>
       <r>   -1.5243    1.0000 </r>
       <r>   -0.6962    1.0000 </r>
       <r>    0.2086    1.0000 </r>
       <r>    1.3022    1.0000 </r>
       <r>    1.8462    1.0000 </r>
       <r>    2.4671    1.0000 </r>
       <r>    2.5431    1.0000 </r>
       <r>    2.7291    1.0000 </r>
       <r>    3.1663    1.0000 </r>
       <r>    3.2304    1.0000 </r>
       <r>    3.6741    1.0000 </r>
       <r>    4.9976    1.0000 </r>
       <r>    7.1485    0.0000 </r>
       <r>    7.4479    0.0000 </r>
       <r>    8.0738    0.0000 </r>
       <r>    8.3043    0.0000 </r>
       <r>    8.4210    0.0000 </r>
       <r>    8.6687    0.0000 </r>
       <r>    8.7762    0.0000 </r>
       <r>    9.3726    0.0000 </r>
      </set>
      <set comment="kpoint 19">
       <r>   -5.3005    1.0000 </r>
       <r>   -4.0149    1.0000 </r>
       <r>   -3.9732    1.0000 </r>
       <r>   -3.0625    1.0000 </r>
       <r>   -1.2004    1.0000 </r>
       <r>   -0.1038    1.0000 </r>
       <r>   -0.0620    1.0000 </r>
       <r>    1.2332    1.0000 </r>
       <r>    1.8191    1.0000 </r>
       <r>    2.0054    1.0000 </r>
       <r>    2.0569    1.0000 </r>
       <r>    3.1526    1.0000 </r>
       <r>    3.3072    1.0000 </r>
       <r>    3.3369    1.0000 </r>
       <r>    3.5206    1.0000 </r>
       <r>    5.0082    1.0000 </r>
       <r>    7.1754    0.0000 </r>
       <r>    8.2085    0.0000 </r>
       <r>    8.4745    0.0000 </r>
       <r>    8.5089    0.0000 </r>
       <r>    9.0018    0.0000 </r>
       <r>    9.1468    0.0000 </r>
       <r>    9.2992    0.0000 </r>
       <r>    9.3223    0.0000 </r>
      </set>
      <set comment="kpoint 20">
       <r>   -4.9470    1.0000 </r>
       <r>   -4.5017    1.0000 </r>
       <r>   -3.7390    1.0000 </r>
       <r>   -3.4130    1.0000 </r>
       <r>   -0.8452    1.0000 </r>
       <r>   -0.4701    1.0000 </r>
       <r>    0.5572    1.0000 </r>
       <r>    1.1804    1.0000 </r>
       <r>    1.3569    1.0000 </r>
       <r>    1.6439    1.0000 </r>
       <r>    2.2877    1.0000 </r>
       <r>    2.6773    1.0000 </r>
       <r>    3.4475    1.0000 </r>
       <r>    3.5715    1.0000 </r>
       <r>    4.0119    1.0000 </r>
       <r>    4.6306    1.0000 </r>
       <r>    7.7352    0.0000 </r>
       <r>    8.4303    0.0000 </r>
       <r>    8.6245    0.0000 </r>
       <r>    8.6763    0.0000 </r>
       <r>    8.7165    0.0000 </r>
       <r>    9.0404    0.0000 </r>
       <r>    9.6420    0.0000 </r>
       <r>    9.7693    0.0000 </r>
      </set>
      <set comment="kpoint 21">
       <r>   -5.4042    1.0000 </r>
       <r>   -4.9469    1.0000 </r>
       <r>   -2.0492    1.0000 </r>
       <r>   -2.0492    1.0000 </r>
       <r>   -2.0268    1.0000 </r>
       <r>   -2.0268    1.0000 </r>
       <r>    1.4631    1.0000 </r>
       <r>    1.8127    1.0000 </r>
       <r>    1.8127    1.0000 </r>
       <r>    1.8392    1.0000 </r>
       <r>    1.8392    1.0000 </r>
       <r>    2.4438    1.0000 </r>
       <r>    3.5191    1.0000 </r>
       <r>    3.5584    1.0000 </r>
       <r>    3.9100    1.0000 </r>
       <r>    3.9632    1.0000 </r>
       <r>    6.5841    0.0000 </r>
       <r>    6.9042    0.0000 </r>
       <r>    8.2631    0.0000 </r>
       <r>    9.0394    0.0000 </r>
       <r>    9.2382    0.0000 </r>
       <r>    9.2382    0.0000 </r>
       <r>    9.4102    0.0000 </r>
       <r>    9.4102    0.0000 </r>
      </set>
      <set comment="kpoint 22">
       <r>   -5.3541    1.0000 </r>
       <r>   -4.8995    1.0000 </r>
       <r>   -2.5964    1.0000 </r>
       <r>   -2.4821    1.0000 </r>
       <r>   -1.6429    1.0000 </r>
       <r>   -1.4802    1.0000 </r>
       <r>    1.3265    1.0000 </r>
       <r>    1.4787    1.0000 </r>
       <r>    1.5701    1.0000 </r>
       <r>    2.2180    1.0000 </r>
       <r>    2.2430    1.0000 </r>
       <r>    2.3737    1.0000 </r>
       <r>    3.3042    1.0000 </r>
       <r>    3.6257    1.0000 </r>
       <r>    3.6929    1.0000 </r>
       <r>    4.1238    1.0000 </r>
       <r>    6.9001    0.0000 </r>
       <r>    7.2146    0.0000 </r>
       <r>    8.4626    0.0000 </r>
       <r>    8.6214    0.0000 </r>
       <r>    9.1798    0.0000 </r>
       <r>    9.1899    0.0000 </r>
       <r>    9.3597    0.0000 </r>
       <r>   10.0196    0.0000 </r>
      </set>
      <set comment="kpoint 23">
       <r>   -5.2048    1.0000 </r>
       <r>   -4.7585    1.0000 </r>
       <r>   -3.1671    1.0000 </r>
       <r>   -2.9393    1.0000 </r>
       <r>   -1.2468    1.0000 </r>
       <r>   -0.9602    1.0000 </r>
       <r>    0.9801    1.0000 </r>
       <r>    1.3174    1.0000 </r>
       <r>    1.5109    1.0000 </r>
       <r>    1.7293    1.0000 </r>
       <r>    2.8327    1.0000 </r>
       <r>    2.8345    1.0000 </r>
       <r>    3.0112    1.0000 </r>
       <r>    3.2175    1.0000 </r>
       <r>    3.7873    1.0000 </r>
       <r>    4.4121    1.0000 </r>
       <r>    7.6719    0.0000 </r>
       <r>    7.9679    0.0000 </r>
       <r>    7.9966    0.0000 </r>
       <r>    9.0267    0.0000 </r>
       <r>    9.0732    0.0000 </r>
       <r>    9.2157    0.0000 </r>
       <r>    9.3372    0.0000 </r>
       <r>    9.8341    0.0000 </r>
      </set>
      <set comment="kpoint 24">
       <r>   -4.9590    1.0000 </r>
       <r>   -4.5280    1.0000 </r>
       <r>   -3.7104    1.0000 </r>
       <r>   -3.3992    1.0000 </r>
       <r>   -0.8389    1.0000 </r>
       <r>   -0.4517    1.0000 </r>
       <r>    0.5321    1.0000 </r>
       <r>    1.1685    1.0000 </r>
       <r>    1.3471    1.0000 </r>
       <r>    1.6162    1.0000 </r>
       <r>    2.3269    1.0000 </r>
       <r>    2.6989    1.0000 </r>
       <r>    3.5082    1.0000 </r>
       <r>    3.6201    1.0000 </r>
       <r>    3.9722    1.0000 </r>
       <r>    4.6040    1.0000 </r>
       <r>    7.6490    0.0000 </r>
       <r>    8.5314    0.0000 </r>
       <r>    8.6792    0.0000 </r>
       <r>    8.7130    0.0000 </r>
       <r>    8.9400    0.0000 </r>
       <r>    9.1986    0.0000 </r>
       <r>    9.3392    0.0000 </r>
       <r>    9.8904    0.0000 </r>
      </set>
      <set comment="kpoint 25">
       <r>   -4.6218    1.0000 </r>
       <r>   -4.2154    1.0000 </r>
       <r>   -4.2014    1.0000 </r>
       <r>   -3.8330    1.0000 </r>
       <r>   -0.4047    1.0000 </r>
       <r>    0.0574    1.0000 </r>
       <r>    0.0660    1.0000 </r>
       <r>    0.6064    1.0000 </r>
       <r>    1.5442    1.0000 </r>
       <r>    1.8642    1.0000 </r>
       <r>    1.8811    1.0000 </r>
       <r>    2.2336    1.0000 </r>
       <r>    4.0129    1.0000 </r>
       <r>    4.0938    1.0000 </r>
       <r>    4.1386    1.0000 </r>
       <r>    4.5405    1.0000 </r>
       <r>    7.7310    0.0000 </r>
       <r>    8.2083    0.0000 </r>
       <r>    8.2539    0.0000 </r>
       <r>    8.2994    0.0000 </r>
       <r>    9.5339    0.0000 </r>
       <r>    9.7418    0.0000 </r>
       <r>    9.8127    0.0000 </r>
       <r>   10.1088    0.0000 </r>
      </set>
      <set comment="kpoint 26">
       <r>   -6.1256    1.0000 </r>
       <r>   -3.0016    1.0000 </r>
       <r>   -3.0016    1.0000 </r>
       <r>   -2.1875    1.0000 </r>
       <r>   -2.0072    1.0000 </r>
       <r>   -1.3715    1.0000 </r>
       <r>   -1.3715    1.0000 </r>
       <r>    2.1447    1.0000 </r>
       <r>    2.6851    1.0000 </r>
       <r>    2.6851    1.0000 </r>
       <r>    2.7332    1.0000 </r>
       <r>    2.7332    1.0000 </r>
       <r>    2.7355    1.0000 </r>
       <r>    4.6157    1.0000 </r>
       <r>    5.1893    1.0000 </r>
       <r>    5.4183    0.9994 </r>
       <r>    6.2808    0.0000 </r>
       <r>    6.5067    0.0000 </r>
       <r>    6.5067    0.0000 </r>
       <r>    6.8630    0.0000 </r>
       <r>    6.8630    0.0000 </r>
       <r>    7.0635    0.0000 </r>
       <r>    8.2065    0.0000 </r>
       <r>    8.2195    0.0000 </r>
      </set>
      <set comment="kpoint 27">
       <r>   -6.0721    1.0000 </r>
       <r>   -2.9774    1.0000 </r>
       <r>   -2.9774    1.0000 </r>
       <r>   -2.8875    1.0000 </r>
       <r>   -1.3745    1.0000 </r>
       <r>   -1.3745    1.0000 </r>
       <r>   -1.2634    1.0000 </r>
       <r>    2.2142    1.0000 </r>
       <r>    2.3087    1.0000 </r>
       <r>    2.3087    1.0000 </r>
       <r>    2.7835    1.0000 </r>
       <r>    2.9318    1.0000 </r>
       <r>    2.9318    1.0000 </r>
       <r>    4.1794    1.0000 </r>
       <r>    5.2372    1.0000 </r>
       <r>    5.3439    1.0000 </r>
       <r>    6.3141    0.0000 </r>
       <r>    6.4770    0.0000 </r>
       <r>    6.4770    0.0000 </r>
       <r>    7.1740    0.0000 </r>
       <r>    7.3552    0.0000 </r>
       <r>    7.3552    0.0000 </r>
       <r>    7.9724    0.0000 </r>
       <r>    8.3986    0.0000 </r>
      </set>
      <set comment="kpoint 28">
       <r>   -5.9123    1.0000 </r>
       <r>   -3.6079    1.0000 </r>
       <r>   -2.9119    1.0000 </r>
       <r>   -2.9119    1.0000 </r>
       <r>   -1.3879    1.0000 </r>
       <r>   -1.3879    1.0000 </r>
       <r>   -0.4170    1.0000 </r>
       <r>    1.9195    1.0000 </r>
       <r>    1.9195    1.0000 </r>
       <r>    2.4245    1.0000 </r>
       <r>    2.8650    1.0000 </r>
       <r>    2.8650    1.0000 </r>
       <r>    2.9264    1.0000 </r>
       <r>    3.4815    1.0000 </r>
       <r>    4.8213    1.0000 </r>
       <r>    5.1321    1.0000 </r>
       <r>    6.4227    0.0000 </r>
       <r>    6.8885    0.0000 </r>
       <r>    6.8885    0.0000 </r>
       <r>    7.4942    0.0000 </r>
       <r>    7.9195    0.0000 </r>
       <r>    8.2597    0.0000 </r>
       <r>    8.2597    0.0000 </r>
       <r>    8.4179    0.0000 </r>
      </set>
      <set comment="kpoint 29">
       <r>   -5.6474    1.0000 </r>
       <r>   -4.2536    1.0000 </r>
       <r>   -2.8290    1.0000 </r>
       <r>   -2.8290    1.0000 </r>
       <r>   -1.4158    1.0000 </r>
       <r>   -1.4158    1.0000 </r>
       <r>    0.4237    1.0000 </r>
       <r>    1.6473    1.0000 </r>
       <r>    1.6473    1.0000 </r>
       <r>    2.6503    1.0000 </r>
       <r>    2.6503    1.0000 </r>
       <r>    2.7500    1.0000 </r>
       <r>    2.7789    1.0000 </r>
       <r>    3.1616    1.0000 </r>
       <r>    4.3414    1.0000 </r>
       <r>    4.5528    1.0000 </r>
       <r>    6.6171    0.0000 </r>
       <r>    7.6227    0.0000 </r>
       <r>    7.7232    0.0000 </r>
       <r>    7.7232    0.0000 </r>
       <r>    8.0023    0.0000 </r>
       <r>    8.9661    0.0000 </r>
       <r>    9.3496    0.0000 </r>
       <r>    9.3496    0.0000 </r>
      </set>
      <set comment="kpoint 30">
       <r>   -5.2799    1.0000 </r>
       <r>   -4.8135    1.0000 </r>
       <r>   -2.7684    1.0000 </r>
       <r>   -2.7684    1.0000 </r>
       <r>   -1.4436    1.0000 </r>
       <r>   -1.4436    1.0000 </r>
       <r>    1.2337    1.0000 </r>
       <r>    1.5200    1.0000 </r>
       <r>    1.5200    1.0000 </r>
       <r>    2.0052    1.0000 </r>
       <r>    2.4856    1.0000 </r>
       <r>    2.4856    1.0000 </r>
       <r>    3.2745    1.0000 </r>
       <r>    3.4837    1.0000 </r>
       <r>    3.8830    1.0000 </r>
       <r>    3.8872    1.0000 </r>
       <r>    6.8960    0.0000 </r>
       <r>    7.2436    0.0000 </r>
       <r>    8.6619    0.0000 </r>
       <r>    8.8027    0.0000 </r>
       <r>    8.8027    0.0000 </r>
       <r>    9.2955    0.0000 </r>
       <r>   10.0139    0.0000 </r>
       <r>   10.0141    0.0000 </r>
      </set>
      <set comment="kpoint 31">
       <r>   -5.9705    1.0000 </r>
       <r>   -3.7174    1.0000 </r>
       <r>   -2.9164    1.0000 </r>
       <r>   -2.2643    1.0000 </r>
       <r>   -1.8816    1.0000 </r>
       <r>   -1.3762    1.0000 </r>
       <r>   -0.4855    1.0000 </r>
       <r>    1.7876    1.0000 </r>
       <r>    2.3146    1.0000 </r>
       <r>    2.4959    1.0000 </r>
       <r>    2.6853    1.0000 </r>
       <r>    2.8125    1.0000 </r>
       <r>    2.9120    1.0000 </r>
       <r>    3.8874    1.0000 </r>
       <r>    4.7309    1.0000 </r>
       <r>    5.1347    1.0000 </r>
       <r>    6.5227    0.0000 </r>
       <r>    6.6418    0.0000 </r>
       <r>    7.2389    0.0000 </r>
       <r>    7.2517    0.0000 </r>
       <r>    7.5426    0.0000 </r>
       <r>    7.9464    0.0000 </r>
       <r>    7.9517    0.0000 </r>
       <r>    8.5414    0.0000 </r>
      </set>
      <set comment="kpoint 32">
       <r>   -5.9177    1.0000 </r>
       <r>   -3.6819    1.0000 </r>
       <r>   -2.9113    1.0000 </r>
       <r>   -2.8336    1.0000 </r>
       <r>   -1.3809    1.0000 </r>
       <r>   -1.2950    1.0000 </r>
       <r>   -0.5248    1.0000 </r>
       <r>    1.8751    1.0000 </r>
       <r>    1.9319    1.0000 </r>
       <r>    2.5037    1.0000 </r>
       <r>    2.7449    1.0000 </r>
       <r>    2.8882    1.0000 </r>
       <r>    3.0698    1.0000 </r>
       <r>    3.4739    1.0000 </r>
       <r>    4.8940    1.0000 </r>
       <r>    5.0835    1.0000 </r>
       <r>    6.5909    0.0000 </r>
       <r>    6.6941    0.0000 </r>
       <r>    6.8445    0.0000 </r>
       <r>    7.6398    0.0000 </r>
       <r>    8.0149    0.0000 </r>
       <r>    8.0302    0.0000 </r>
       <r>    8.2293    0.0000 </r>
       <r>    8.3813    0.0000 </r>
      </set>
      <set comment="kpoint 33">
       <r>   -5.7600    1.0000 </r>
       <r>   -3.5796    1.0000 </r>
       <r>   -3.5135    1.0000 </r>
       <r>   -2.9109    1.0000 </r>
       <r>   -1.3849    1.0000 </r>
       <r>   -0.6449    1.0000 </r>
       <r>   -0.5670    1.0000 </r>
       <r>    1.6051    1.0000 </r>
       <r>    2.1315    1.0000 </r>
       <r>    2.1573    1.0000 </r>
       <r>    2.7989    1.0000 </r>
       <r>    2.9280    1.0000 </r>
       <r>    3.0390    1.0000 </r>
       <r>    3.1752    1.0000 </r>
       <r>    4.5097    1.0000 </r>
       <r>    5.2144    1.0000 </r>
       <r>    6.7857    0.0000 </r>
       <r>    6.8469    0.0000 </r>
       <r>    7.0359    0.0000 </r>
       <r>    7.9332    0.0000 </r>
       <r>    8.2834    0.0000 </r>
       <r>    8.4874    0.0000 </r>
       <r>    8.6240    0.0000 </r>
       <r>    8.9460    0.0000 </r>
      </set>
      <set comment="kpoint 34">
       <r>   -5.4991    1.0000 </r>
       <r>   -4.1360    1.0000 </r>
       <r>   -3.4235    1.0000 </r>
       <r>   -2.9533    1.0000 </r>
       <r>   -1.3532    1.0000 </r>
       <r>   -0.8359    1.0000 </r>
       <r>    0.1312    1.0000 </r>
       <r>    1.4619    1.0000 </r>
       <r>    1.8769    1.0000 </r>
       <r>    2.1126    1.0000 </r>
       <r>    2.5271    1.0000 </r>
       <r>    2.9273    1.0000 </r>
       <r>    3.1773    1.0000 </r>
       <r>    3.2496    1.0000 </r>
       <r>    4.0083    1.0000 </r>
       <r>    4.8952    1.0000 </r>
       <r>    7.0886    0.0000 </r>
       <r>    7.2742    0.0000 </r>
       <r>    7.8665    0.0000 </r>
       <r>    7.9809    0.0000 </r>
       <r>    8.6994    0.0000 </r>
       <r>    8.7062    0.0000 </r>
       <r>    9.4853    0.0000 </r>
       <r>    9.5419    0.0000 </r>
      </set>
      <set comment="kpoint 35">
       <r>   -5.1379    1.0000 </r>
       <r>   -4.6812    1.0000 </r>
       <r>   -3.2395    1.0000 </r>
       <r>   -3.0679    1.0000 </r>
       <r>   -1.2438    1.0000 </r>
       <r>   -1.0558    1.0000 </r>
       <r>    0.7951    1.0000 </r>
       <r>    1.4473    1.0000 </r>
       <r>    1.4943    1.0000 </r>
       <r>    1.6514    1.0000 </r>
       <r>    2.9128    1.0000 </r>
       <r>    2.9994    1.0000 </r>
       <r>    3.0289    1.0000 </r>
       <r>    3.4972    1.0000 </r>
       <r>    3.7249    1.0000 </r>
       <r>    4.3172    1.0000 </r>
       <r>    7.3988    0.0000 </r>
       <r>    7.7386    0.0000 </r>
       <r>    8.1730    0.0000 </r>
       <r>    8.9263    0.0000 </r>
       <r>    9.1954    0.0000 </r>
       <r>    9.2580    0.0000 </r>
       <r>    9.3225    0.0000 </r>
       <r>   10.1050    0.0000 </r>
      </set>
      <set comment="kpoint 36">
       <r>   -5.7132    1.0000 </r>
       <r>   -4.3529    1.0000 </r>
       <r>   -2.7874    1.0000 </r>
       <r>   -2.3590    1.0000 </r>
       <r>   -1.7376    1.0000 </r>
       <r>   -1.4054    1.0000 </r>
       <r>    0.4238    1.0000 </r>
       <r>    1.5581    1.0000 </r>
       <r>    1.9306    1.0000 </r>
       <r>    2.2896    1.0000 </r>
       <r>    2.4794    1.0000 </r>
       <r>    3.0369    1.0000 </r>
       <r>    3.0831    1.0000 </r>
       <r>    3.1951    1.0000 </r>
       <r>    4.2247    1.0000 </r>
       <r>    4.6084    1.0000 </r>
       <r>    6.6542    0.0000 </r>
       <r>    7.4262    0.0000 </r>
       <r>    7.5768    0.0000 </r>
       <r>    7.7853    0.0000 </r>
       <r>    8.2307    0.0000 </r>
       <r>    8.4924    0.0000 </r>
       <r>    9.0027    0.0000 </r>
       <r>    9.1432    0.0000 </r>
      </set>
      <set comment="kpoint 37">
       <r>   -5.6617    1.0000 </r>
       <r>   -4.3107    1.0000 </r>
       <r>   -2.8243    1.0000 </r>
       <r>   -2.7694    1.0000 </r>
       <r>   -1.3965    1.0000 </r>
       <r>   -1.3456    1.0000 </r>
       <r>    0.3311    1.0000 </r>
       <r>    1.6440    1.0000 </r>
       <r>    1.6664    1.0000 </r>
       <r>    2.5788    1.0000 </r>
       <r>    2.6856    1.0000 </r>
       <r>    2.7323    1.0000 </r>
       <r>    2.8321    1.0000 </r>
       <r>    3.2972    1.0000 </r>
       <r>    4.4194    1.0000 </r>
       <r>    4.5317    1.0000 </r>
       <r>    6.7862    0.0000 </r>
       <r>    7.4786    0.0000 </r>
       <r>    7.6307    0.0000 </r>
       <r>    7.7593    0.0000 </r>
       <r>    8.0994    0.0000 </r>
       <r>    8.9209    0.0000 </r>
       <r>    9.0743    0.0000 </r>
       <r>    9.2810    0.0000 </r>
      </set>
      <set comment="kpoint 38">
       <r>   -5.5079    1.0000 </r>
       <r>   -4.1866    1.0000 </r>
       <r>   -3.3704    1.0000 </r>
       <r>   -2.9477    1.0000 </r>
       <r>   -1.3442    1.0000 </r>
       <r>   -0.7887    1.0000 </r>
       <r>    0.0775    1.0000 </r>
       <r>    1.4654    1.0000 </r>
       <r>    1.8753    1.0000 </r>
       <r>    2.1099    1.0000 </r>
       <r>    2.5338    1.0000 </r>
       <r>    2.8840    1.0000 </r>
       <r>    3.2133    1.0000 </r>
       <r>    3.3407    1.0000 </r>
       <r>    4.0170    1.0000 </r>
       <r>    4.9020    1.0000 </r>
       <r>    7.2062    0.0000 </r>
       <r>    7.2701    0.0000 </r>
       <r>    7.6313    0.0000 </r>
       <r>    8.1136    0.0000 </r>
       <r>    8.6626    0.0000 </r>
       <r>    8.8698    0.0000 </r>
       <r>    9.2908    0.0000 </r>
       <r>    9.4493    0.0000 </r>
      </set>
      <set comment="kpoint 39">
       <r>   -5.2542    1.0000 </r>
       <r>   -3.9885    1.0000 </r>
       <r>   -3.9483    1.0000 </r>
       <r>   -3.1648    1.0000 </r>
       <r>   -1.2038    1.0000 </r>
       <r>   -0.2705    1.0000 </r>
       <r>   -0.2455    1.0000 </r>
       <r>    1.4550    1.0000 </r>
       <r>    1.4705    1.0000 </r>
       <r>    2.2004    1.0000 </r>
       <r>    2.2057    1.0000 </r>
       <r>    3.3838    1.0000 </r>
       <r>    3.3909    1.0000 </r>
       <r>    3.5235    1.0000 </r>
       <r>    3.5579    1.0000 </r>
       <r>    4.9570    1.0000 </r>
       <r>    7.2306    0.0000 </r>
       <r>    7.8681    0.0000 </r>
       <r>    8.0918    0.0000 </r>
       <r>    8.1590    0.0000 </r>
       <r>    9.0084    0.0000 </r>
       <r>    9.2504    0.0000 </r>
       <r>    9.6217    0.0000 </r>
       <r>    9.7216    0.0000 </r>
      </set>
      <set comment="kpoint 40">
       <r>   -4.9045    1.0000 </r>
       <r>   -4.4656    1.0000 </r>
       <r>   -3.7317    1.0000 </r>
       <r>   -3.4432    1.0000 </r>
       <r>   -0.9612    1.0000 </r>
       <r>   -0.6367    1.0000 </r>
       <r>    0.2968    1.0000 </r>
       <r>    0.8641    1.0000 </r>
       <r>    1.6084    1.0000 </r>
       <r>    1.8775    1.0000 </r>
       <r>    2.5898    1.0000 </r>
       <r>    3.0353    1.0000 </r>
       <r>    3.5053    1.0000 </r>
       <r>    3.6141    1.0000 </r>
       <r>    4.0019    1.0000 </r>
       <r>    4.5957    1.0000 </r>
       <r>    7.7786    0.0000 </r>
       <r>    8.1432    0.0000 </r>
       <r>    8.2595    0.0000 </r>
       <r>    8.7045    0.0000 </r>
       <r>    8.8580    0.0000 </r>
       <r>    9.0899    0.0000 </r>
       <r>    9.1407    0.0000 </r>
       <r>    9.9614    0.0000 </r>
      </set>
      <set comment="kpoint 41">
       <r>   -5.3557    1.0000 </r>
       <r>   -4.9009    1.0000 </r>
       <r>   -2.6348    1.0000 </r>
       <r>   -2.4845    1.0000 </r>
       <r>   -1.5944    1.0000 </r>
       <r>   -1.4775    1.0000 </r>
       <r>    1.3352    1.0000 </r>
       <r>    1.5076    1.0000 </r>
       <r>    1.6417    1.0000 </r>
       <r>    2.2114    1.0000 </r>
       <r>    2.2277    1.0000 </r>
       <r>    2.2872    1.0000 </r>
       <r>    3.3537    1.0000 </r>
       <r>    3.5809    1.0000 </r>
       <r>    3.7547    1.0000 </r>
       <r>    4.0615    1.0000 </r>
       <r>    6.8880    0.0000 </r>
       <r>    7.2054    0.0000 </r>
       <r>    8.4517    0.0000 </r>
       <r>    8.4640    0.0000 </r>
       <r>    9.1665    0.0000 </r>
       <r>    9.3708    0.0000 </r>
       <r>    9.4257    0.0000 </r>
       <r>    9.9486    0.0000 </r>
      </set>
      <set comment="kpoint 42">
       <r>   -5.3061    1.0000 </r>
       <r>   -4.8543    1.0000 </r>
       <r>   -2.7522    1.0000 </r>
       <r>   -2.7319    1.0000 </r>
       <r>   -1.4090    1.0000 </r>
       <r>   -1.3930    1.0000 </r>
       <r>    1.1670    1.0000 </r>
       <r>    1.5374    1.0000 </r>
       <r>    1.5410    1.0000 </r>
       <r>    1.9668    1.0000 </r>
       <r>    2.4660    1.0000 </r>
       <r>    2.5065    1.0000 </r>
       <r>    3.2930    1.0000 </r>
       <r>    3.6099    1.0000 </r>
       <r>    3.8645    1.0000 </r>
       <r>    4.0035    1.0000 </r>
       <r>    7.0597    0.0000 </r>
       <r>    7.3960    0.0000 </r>
       <r>    8.5127    0.0000 </r>
       <r>    8.6688    0.0000 </r>
       <r>    8.7091    0.0000 </r>
       <r>    9.3195    0.0000 </r>
       <r>    9.6949    0.0000 </r>
       <r>    9.8187    0.0000 </r>
      </set>
      <set comment="kpoint 43">
       <r>   -5.1586    1.0000 </r>
       <r>   -4.7161    1.0000 </r>
       <r>   -3.2031    1.0000 </r>
       <r>   -3.0490    1.0000 </r>
       <r>   -1.2269    1.0000 </r>
       <r>   -1.0286    1.0000 </r>
       <r>    0.7667    1.0000 </r>
       <r>    1.4364    1.0000 </r>
       <r>    1.4961    1.0000 </r>
       <r>    1.6523    1.0000 </r>
       <r>    2.9317    1.0000 </r>
       <r>    3.0014    1.0000 </r>
       <r>    3.0756    1.0000 </r>
       <r>    3.5047    1.0000 </r>
       <r>    3.7827    1.0000 </r>
       <r>    4.3420    1.0000 </r>
       <r>    7.5717    0.0000 </r>
       <r>    7.9036    0.0000 </r>
       <r>    8.0477    0.0000 </r>
       <r>    8.6553    0.0000 </r>
       <r>    9.1386    0.0000 </r>
       <r>    9.2336    0.0000 </r>
       <r>    9.3862    0.0000 </r>
       <r>    9.8306    0.0000 </r>
      </set>
      <set comment="kpoint 44">
       <r>   -4.9162    1.0000 </r>
       <r>   -4.4912    1.0000 </r>
       <r>   -3.7049    1.0000 </r>
       <r>   -3.4310    1.0000 </r>
       <r>   -0.9559    1.0000 </r>
       <r>   -0.6254    1.0000 </r>
       <r>    0.2872    1.0000 </r>
       <r>    0.8619    1.0000 </r>
       <r>    1.6054    1.0000 </r>
       <r>    1.8710    1.0000 </r>
       <r>    2.5981    1.0000 </r>
       <r>    3.0415    1.0000 </r>
       <r>    3.5477    1.0000 </r>
       <r>    3.6554    1.0000 </r>
       <r>    3.9859    1.0000 </r>
       <r>    4.5811    1.0000 </r>
       <r>    7.6950    0.0000 </r>
       <r>    8.3642    0.0000 </r>
       <r>    8.4307    0.0000 </r>
       <r>    8.5537    0.0000 </r>
       <r>    8.8845    0.0000 </r>
       <r>    8.8882    0.0000 </r>
       <r>    9.1824    0.0000 </r>
       <r>    9.8420    0.0000 </r>
      </set>
      <set comment="kpoint 45">
       <r>   -4.5851    1.0000 </r>
       <r>   -4.1891    1.0000 </r>
       <r>   -4.1756    1.0000 </r>
       <r>   -3.8264    1.0000 </r>
       <r>   -0.6051    1.0000 </r>
       <r>   -0.1841    1.0000 </r>
       <r>   -0.1811    1.0000 </r>
       <r>    0.3153    1.0000 </r>
       <r>    1.8488    1.0000 </r>
       <r>    2.1877    1.0000 </r>
       <r>    2.1933    1.0000 </r>
       <r>    2.5865    1.0000 </r>
       <r>    4.0372    1.0000 </r>
       <r>    4.1150    1.0000 </r>
       <r>    4.1499    1.0000 </r>
       <r>    4.5382    1.0000 </r>
       <r>    7.7602    0.0000 </r>
       <r>    8.1822    0.0000 </r>
       <r>    8.1975    0.0000 </r>
       <r>    8.2943    0.0000 </r>
       <r>    9.1774    0.0000 </r>
       <r>    9.3960    0.0000 </r>
       <r>    9.5088    0.0000 </r>
       <r>    9.6837    0.0000 </r>
      </set>
      <set comment="kpoint 46">
       <r>   -5.8172    1.0000 </r>
       <r>   -3.6079    1.0000 </r>
       <r>   -3.6079    1.0000 </r>
       <r>   -2.4701    1.0000 </r>
       <r>   -1.6690    1.0000 </r>
       <r>   -0.5687    1.0000 </r>
       <r>   -0.5687    1.0000 </r>
       <r>    1.4710    1.0000 </r>
       <r>    2.4035    1.0000 </r>
       <r>    2.4035    1.0000 </r>
       <r>    2.7799    1.0000 </r>
       <r>    2.7799    1.0000 </r>
       <r>    2.9796    1.0000 </r>
       <r>    3.2027    1.0000 </r>
       <r>    4.2715    1.0000 </r>
       <r>    5.2306    1.0000 </r>
       <r>    6.5601    0.0000 </r>
       <r>    7.2683    0.0000 </r>
       <r>    7.2683    0.0000 </r>
       <r>    7.8925    0.0000 </r>
       <r>    7.8925    0.0000 </r>
       <r>    8.3558    0.0000 </r>
       <r>    8.5278    0.0000 </r>
       <r>    8.7850    0.0000 </r>
      </set>
      <set comment="kpoint 47">
       <r>   -5.7653    1.0000 </r>
       <r>   -3.5811    1.0000 </r>
       <r>   -3.5811    1.0000 </r>
       <r>   -2.8510    1.0000 </r>
       <r>   -1.3087    1.0000 </r>
       <r>   -0.6330    1.0000 </r>
       <r>   -0.6330    1.0000 </r>
       <r>    1.6079    1.0000 </r>
       <r>    2.1765    1.0000 </r>
       <r>    2.1765    1.0000 </r>
       <r>    2.8055    1.0000 </r>
       <r>    3.0246    1.0000 </r>
       <r>    3.0489    1.0000 </r>
       <r>    3.0489    1.0000 </r>
       <r>    4.6089    1.0000 </r>
       <r>    5.1115    1.0000 </r>
       <r>    6.6240    0.0000 </r>
       <r>    6.9952    0.0000 </r>
       <r>    6.9952    0.0000 </r>
       <r>    7.9311    0.0000 </r>
       <r>    8.4583    0.0000 </r>
       <r>    8.4583    0.0000 </r>
       <r>    8.6365    0.0000 </r>
       <r>    8.9764    0.0000 </r>
      </set>
      <set comment="kpoint 48">
       <r>   -5.6104    1.0000 </r>
       <r>   -3.5085    1.0000 </r>
       <r>   -3.5085    1.0000 </r>
       <r>   -3.4510    1.0000 </r>
       <r>   -0.8042    1.0000 </r>
       <r>   -0.8042    1.0000 </r>
       <r>   -0.7615    1.0000 </r>
       <r>    1.9687    1.0000 </r>
       <r>    1.9687    1.0000 </r>
       <r>    2.0046    1.0000 </r>
       <r>    2.1440    1.0000 </r>
       <r>    3.1585    1.0000 </r>
       <r>    3.3045    1.0000 </r>
       <r>    3.3045    1.0000 </r>
       <r>    4.8089    1.0000 </r>
       <r>    4.9437    1.0000 </r>
       <r>    6.8103    0.0000 </r>
       <r>    6.9612    0.0000 </r>
       <r>    6.9612    0.0000 </r>
       <r>    7.5420    0.0000 </r>
       <r>    8.9225    0.0000 </r>
       <r>    8.9491    0.0000 </r>
       <r>    9.2021    0.0000 </r>
       <r>    9.4270    0.0000 </r>
      </set>
      <set comment="kpoint 49">
       <r>   -5.3545    1.0000 </r>
       <r>   -4.0349    1.0000 </r>
       <r>   -3.4158    1.0000 </r>
       <r>   -3.4158    1.0000 </r>
       <r>   -1.0119    1.0000 </r>
       <r>   -1.0119    1.0000 </r>
       <r>   -0.2267    1.0000 </r>
       <r>    1.4854    1.0000 </r>
       <r>    1.8980    1.0000 </r>
       <r>    1.8980    1.0000 </r>
       <r>    2.6100    1.0000 </r>
       <r>    3.3368    1.0000 </r>
       <r>    3.3368    1.0000 </r>
       <r>    3.3769    1.0000 </r>
       <r>    4.4228    1.0000 </r>
       <r>    4.7291    1.0000 </r>
       <r>    7.0995    0.0000 </r>
       <r>    7.4368    0.0000 </r>
       <r>    7.4368    0.0000 </r>
       <r>    7.6359    0.0000 </r>
       <r>    8.8089    0.0000 </r>
       <r>    9.3243    0.0000 </r>
       <r>    9.5613    0.0000 </r>
       <r>   10.4463    0.0000 </r>
      </set>
      <set comment="kpoint 50">
       <r>   -5.0015    1.0000 </r>
       <r>   -4.5581    1.0000 </r>
       <r>   -3.3476    1.0000 </r>
       <r>   -3.3476    1.0000 </r>
       <r>   -1.1551    1.0000 </r>
       <r>   -1.1551    1.0000 </r>
       <r>    0.3077    1.0000 </r>
       <r>    0.8725    1.0000 </r>
       <r>    1.9012    1.0000 </r>
       <r>    1.9012    1.0000 </r>
       <r>    3.2716    1.0000 </r>
       <r>    3.2716    1.0000 </r>
       <r>    3.3403    1.0000 </r>
       <r>    3.6718    1.0000 </r>
       <r>    4.0289    1.0000 </r>
       <r>    4.0961    1.0000 </r>
       <r>    7.4450    0.0000 </r>
       <r>    7.7197    0.0000 </r>
       <r>    8.3094    0.0000 </r>
       <r>    8.3094    0.0000 </r>
       <r>    9.0382    0.0000 </r>
       <r>    9.4111    0.0000 </r>
       <r>    9.4111    0.0000 </r>
       <r>    9.7625    0.0000 </r>
      </set>
      <set comment="kpoint 51">
       <r>   -5.5632    1.0000 </r>
       <r>   -4.2270    1.0000 </r>
       <r>   -3.4341    1.0000 </r>
       <r>   -2.7038    1.0000 </r>
       <r>   -1.4319    1.0000 </r>
       <r>   -0.7191    1.0000 </r>
       <r>    0.2320    1.0000 </r>
       <r>    1.3341    1.0000 </r>
       <r>    1.9683    1.0000 </r>
       <r>    2.4866    1.0000 </r>
       <r>    2.6025    1.0000 </r>
       <r>    2.7033    1.0000 </r>
       <r>    3.0063    1.0000 </r>
       <r>    3.1957    1.0000 </r>
       <r>    3.7643    1.0000 </r>
       <r>    4.8961    1.0000 </r>
       <r>    7.0029    0.0000 </r>
       <r>    7.4048    0.0000 </r>
       <r>    8.2666    0.0000 </r>
       <r>    8.2856    0.0000 </r>
       <r>    8.3801    0.0000 </r>
       <r>    8.6230    0.0000 </r>
       <r>    8.8066    0.0000 </r>
       <r>    9.5700    0.0000 </r>
      </set>
      <set comment="kpoint 52">
       <r>   -5.5129    1.0000 </r>
       <r>   -4.1896    1.0000 </r>
       <r>   -3.4257    1.0000 </r>
       <r>   -2.9184    1.0000 </r>
       <r>   -1.2847    1.0000 </r>
       <r>   -0.8060    1.0000 </r>
       <r>    0.0940    1.0000 </r>
       <r>    1.5083    1.0000 </r>
       <r>    1.9171    1.0000 </r>
       <r>    2.1242    1.0000 </r>
       <r>    2.5696    1.0000 </r>
       <r>    2.9304    1.0000 </r>
       <r>    3.0602    1.0000 </r>
       <r>    3.3244    1.0000 </r>
       <r>    4.1130    1.0000 </r>
       <r>    4.7973    1.0000 </r>
       <r>    7.0639    0.0000 </r>
       <r>    7.2342    0.0000 </r>
       <r>    7.7804    0.0000 </r>
       <r>    8.0732    0.0000 </r>
       <r>    8.6329    0.0000 </r>
       <r>    8.8429    0.0000 </r>
       <r>    9.4735    0.0000 </r>
       <r>    9.5278    0.0000 </r>
      </set>
      <set comment="kpoint 53">
       <r>   -5.3630    1.0000 </r>
       <r>   -4.0813    1.0000 </r>
       <r>   -3.4155    1.0000 </r>
       <r>   -3.3745    1.0000 </r>
       <r>   -0.9972    1.0000 </r>
       <r>   -0.9831    1.0000 </r>
       <r>   -0.2394    1.0000 </r>
       <r>    1.4940    1.0000 </r>
       <r>    1.9130    1.0000 </r>
       <r>    1.9714    1.0000 </r>
       <r>    2.5386    1.0000 </r>
       <r>    3.2256    1.0000 </r>
       <r>    3.3548    1.0000 </r>
       <r>    3.5160    1.0000 </r>
       <r>    4.5024    1.0000 </r>
       <r>    4.6539    1.0000 </r>
       <r>    7.2367    0.0000 </r>
       <r>    7.2404    0.0000 </r>
       <r>    7.3742    0.0000 </r>
       <r>    7.6785    0.0000 </r>
       <r>    8.7425    0.0000 </r>
       <r>    9.3801    0.0000 </r>
       <r>    9.7568    0.0000 </r>
       <r>   10.2196    0.0000 </r>
      </set>
      <set comment="kpoint 54">
       <r>   -5.1164    1.0000 </r>
       <r>   -3.9165    1.0000 </r>
       <r>   -3.8814    1.0000 </r>
       <r>   -3.4440    1.0000 </r>
       <r>   -1.1480    1.0000 </r>
       <r>   -0.6248    1.0000 </r>
       <r>   -0.6213    1.0000 </r>
       <r>    0.8671    1.0000 </r>
       <r>    2.0201    1.0000 </r>
       <r>    2.4981    1.0000 </r>
       <r>    2.5836    1.0000 </r>
       <r>    3.5182    1.0000 </r>
       <r>    3.6134    1.0000 </r>
       <r>    3.6678    1.0000 </r>
       <r>    4.1375    1.0000 </r>
       <r>    4.8126    1.0000 </r>
       <r>    7.3872    0.0000 </r>
       <r>    7.5051    0.0000 </r>
       <r>    7.5418    0.0000 </r>
       <r>    7.6856    0.0000 </r>
       <r>    8.9765    0.0000 </r>
       <r>    9.1717    0.0000 </r>
       <r>    9.7231    0.0000 </r>
       <r>    9.8074    0.0000 </r>
      </set>
      <set comment="kpoint 55">
       <r>   -4.7791    1.0000 </r>
       <r>   -4.3613    1.0000 </r>
       <r>   -3.7237    1.0000 </r>
       <r>   -3.5497    1.0000 </r>
       <r>   -1.1421    1.0000 </r>
       <r>   -0.9521    1.0000 </r>
       <r>   -0.1976    1.0000 </r>
       <r>    0.2984    1.0000 </r>
       <r>    2.1985    1.0000 </r>
       <r>    2.3818    1.0000 </r>
       <r>    3.1867    1.0000 </r>
       <r>    3.6815    1.0000 </r>
       <r>    3.6960    1.0000 </r>
       <r>    3.7423    1.0000 </r>
       <r>    3.9623    1.0000 </r>
       <r>    4.4878    1.0000 </r>
       <r>    7.7511    0.0000 </r>
       <r>    7.7661    0.0000 </r>
       <r>    7.8931    0.0000 </r>
       <r>    8.4784    0.0000 </r>
       <r>    8.8009    0.0000 </r>
       <r>    8.9004    0.0000 </r>
       <r>    9.1176    0.0000 </r>
       <r>    9.5069    0.0000 </r>
      </set>
      <set comment="kpoint 56">
       <r>   -5.2109    1.0000 </r>
       <r>   -4.7638    1.0000 </r>
       <r>   -3.2104    1.0000 </r>
       <r>   -2.9582    1.0000 </r>
       <r>   -1.1786    1.0000 </r>
       <r>   -0.9309    1.0000 </r>
       <r>    1.0085    1.0000 </r>
       <r>    1.3872    1.0000 </r>
       <r>    1.6110    1.0000 </r>
       <r>    1.7572    1.0000 </r>
       <r>    2.7410    1.0000 </r>
       <r>    2.8730    1.0000 </r>
       <r>    2.9036    1.0000 </r>
       <r>    3.2966    1.0000 </r>
       <r>    3.7280    1.0000 </r>
       <r>    4.3292    1.0000 </r>
       <r>    7.6351    0.0000 </r>
       <r>    7.8547    0.0000 </r>
       <r>    7.9395    0.0000 </r>
       <r>    8.9342    0.0000 </r>
       <r>    8.9833    0.0000 </r>
       <r>    9.1312    0.0000 </r>
       <r>    9.4132    0.0000 </r>
       <r>    9.9050    0.0000 </r>
      </set>
      <set comment="kpoint 57">
       <r>   -5.1631    1.0000 </r>
       <r>   -4.7200    1.0000 </r>
       <r>   -3.2384    1.0000 </r>
       <r>   -3.0549    1.0000 </r>
       <r>   -1.1826    1.0000 </r>
       <r>   -1.0077    1.0000 </r>
[...]
       <r>   -4.2051    1.0000 </r>
       <r>   -3.8468    1.0000 </r>
       <r>   -0.5433    1.0000 </r>
       <r>   -0.1304    1.0000 </r>
       <r>   -0.1304    1.0000 </r>
       <r>    0.3624    1.0000 </r>
       <r>    1.9618    1.0000 </r>
       <r>    2.3028    1.0000 </r>
       <r>    2.3028    1.0000 </r>
       <r>    2.7021    1.0000 </r>
       <r>    3.8846    1.0000 </r>
       <r>    3.9974    1.0000 </r>
       <r>    3.9974    1.0000 </r>
       <r>    4.3929    1.0000 </r>
       <r>    7.5831    0.0000 </r>
       <r>    8.0219    0.0000 </r>
       <r>    8.0622    0.0000 </r>
       <r>    8.0622    0.0000 </r>
       <r>    9.3231    0.0000 </r>
       <r>    9.3231    0.0000 </r>
       <r>    9.5736    0.0000 </r>
       <r>    9.7415    0.0000 </r>
      </set>
      <set comment="kpoint 73">
       <r>   -4.4945    1.0000 </r>
       <r>   -4.1286    1.0000 </r>
       <r>   -4.1286    1.0000 </r>
       <r>   -3.8325    1.0000 </r>
       <r>   -0.9277    1.0000 </r>
       <r>   -0.6021    1.0000 </r>
       <r>   -0.6021    1.0000 </r>
       <r>   -0.1820    1.0000 </r>
       <r>    2.6525    1.0000 </r>
       <r>    2.9691    1.0000 </r>
       <r>    2.9691    1.0000 </r>
       <r>    3.4091    1.0000 </r>
       <r>    3.9567    1.0000 </r>
       <r>    4.0524    1.0000 </r>
       <r>    4.0524    1.0000 </r>
       <r>    4.3831    1.0000 </r>
       <r>    7.6442    0.0000 </r>
       <r>    7.7550    0.0000 </r>
       <r>    7.9598    0.0000 </r>
       <r>    7.9598    0.0000 </r>
       <r>    8.8526    0.0000 </r>
       <r>    8.8526    0.0000 </r>
       <r>    9.1853    0.0000 </r>
       <r>    9.2411    0.0000 </r>
      </set>
      <set comment="kpoint 74">
       <r>   -4.3256    1.0000 </r>
       <r>   -4.0309    1.0000 </r>
       <r>   -4.0309    1.0000 </r>
       <r>   -3.8549    1.0000 </r>
       <r>   -1.2069    1.0000 </r>
       <r>   -1.0187    1.0000 </r>
       <r>   -1.0187    1.0000 </r>
       <r>   -0.6931    1.0000 </r>
       <r>    3.4447    1.0000 </r>
       <r>    3.6461    1.0000 </r>
       <r>    3.6461    1.0000 </r>
       <r>    4.0620    1.0000 </r>
       <r>    4.1083    1.0000 </r>
       <r>    4.1429    1.0000 </r>
       <r>    4.1429    1.0000 </r>
       <r>    4.3499    1.0000 </r>
       <r>    7.2664    0.0000 </r>
       <r>    7.5673    0.0000 </r>
       <r>    7.5935    0.0000 </r>
       <r>    7.5935    0.0000 </r>
       <r>    8.7362    0.0000 </r>
       <r>    8.7362    0.0000 </r>
       <r>    8.9066    0.0000 </r>
       <r>    9.0572    0.0000 </r>
      </set>
      <set comment="kpoint 75">
       <r>   -4.1296    1.0000 </r>
       <r>   -3.9590    1.0000 </r>
       <r>   -3.9590    1.0000 </r>
       <r>   -3.9558    1.0000 </r>
       <r>   -1.2621    1.0000 </r>
       <r>   -1.2605    1.0000 </r>
       <r>   -1.2605    1.0000 </r>
       <r>   -1.0751    1.0000 </r>
       <r>    3.9984    1.0000 </r>
       <r>    3.9984    1.0000 </r>
       <r>    4.1530    1.0000 </r>
       <r>    4.1786    1.0000 </r>
       <r>    4.2809    1.0000 </r>
       <r>    4.3335    1.0000 </r>
       <r>    4.3335    1.0000 </r>
       <r>    4.4618    1.0000 </r>
       <r>    6.9638    0.0000 </r>
       <r>    7.1981    0.0000 </r>
       <r>    7.2303    0.0000 </r>
       <r>    7.2303    0.0000 </r>
       <r>    8.7662    0.0000 </r>
       <r>    8.7663    0.0000 </r>
       <r>    8.8235    0.0000 </r>
       <r>    8.9172    0.0000 </r>
      </set>
     </set>
    </set>
   </array>
  </eigenvalues>
  <separator name="orbital magnetization" >
   <v name="MAGDIPOLOUT">      0.00000000      0.00000000      0.00000000</v>
  </separator>
  <dos>
   <i name="efermi">      5.70118198 </i>
   <total>
    <array>
     <dimension dim="1">gridpoints</dimension>
     <dimension dim="2">spin</dimension>
     <field>energy</field>
     <field>total</field>
     <field>integrated</field>
     <set>
      <set comment="spin 1">
       <r>    -7.2294     0.0000     0.0000 </r>
       <r>    -7.1672     0.0000     0.0000 </r>
       <r>    -7.1049     0.0000     0.0000 </r>
       <r>    -7.0427     0.0000     0.0000 </r>
       <r>    -6.9804     0.0000     0.0000 </r>
       <r>    -6.9181     0.0000     0.0000 </r>
       <r>    -6.8559     0.0000     0.0000 </r>
       <r>    -6.7936     0.0000     0.0000 </r>
       <r>    -6.7314     0.0000     0.0000 </r>
       <r>    -6.6691     0.0000     0.0000 </r>
       <r>    -6.6069     0.0000     0.0000 </r>
       <r>    -6.5446     0.0000     0.0000 </r>
       <r>    -6.4824     0.0001     0.0000 </r>
       <r>    -6.4201     0.0009     0.0001 </r>
       <r>    -6.3579     0.0004     0.0001 </r>
       <r>    -6.2956    -0.0102    -0.0005 </r>
       <r>    -6.2334     0.0128     0.0003 </r>
       <r>    -6.1711     0.2160     0.0137 </r>
       <r>    -6.1089     0.4692     0.0429 </r>
       <r>    -6.0466     0.4337     0.0699 </r>
       <r>    -5.9844     0.6473     0.1102 </r>
       <r>    -5.9221     1.0969     0.1785 </r>
       <r>    -5.8599     0.6891     0.2214 </r>
       <r>    -5.7976     0.5346     0.2547 </r>
       <r>    -5.7353     1.2170     0.3304 </r>
       <r>    -5.6731     1.3670     0.4155 </r>
       <r>    -5.6108     0.9486     0.4746 </r>
       <r>    -5.5486     1.1718     0.5475 </r>
       <r>    -5.4863     1.6138     0.6480 </r>
       <r>    -5.4241     0.7419     0.6942 </r>
       <r>    -5.3618     1.0005     0.7565 </r>
       <r>    -5.2996     2.0283     0.8827 </r>
       <r>    -5.2373     1.7082     0.9891 </r>
       <r>    -5.1751     1.7138     1.0958 </r>
       <r>    -5.1128     1.9802     1.2190 </r>
       <r>    -5.0506     0.9151     1.2760 </r>
       <r>    -4.9883     0.7935     1.3254 </r>
       <r>    -4.9261     2.1272     1.4578 </r>
       <r>    -4.8638     2.5458     1.6163 </r>
       <r>    -4.8016     2.0686     1.7451 </r>
       <r>    -4.7393     2.2657     1.8861 </r>
       <r>    -4.6771     1.7698     1.9963 </r>
       <r>    -4.6148     1.5079     2.0902 </r>
       <r>    -4.5526     2.3693     2.2377 </r>
       <r>    -4.4903     2.6425     2.4022 </r>
       <r>    -4.4280     1.9650     2.5245 </r>
       <r>    -4.3658     1.8798     2.6415 </r>
       <r>    -4.3035     2.1535     2.7756 </r>
       <r>    -4.2413     2.3073     2.9192 </r>
       <r>    -4.1790     4.0003     3.1682 </r>
       <r>    -4.1168     3.7466     3.4015 </r>
       <r>    -4.0545     2.5156     3.5581 </r>
       <r>    -3.9923     3.1168     3.7521 </r>
       <r>    -3.9300     3.1083     3.9456 </r>
       <r>    -3.8678     2.5571     4.1048 </r>
       <r>    -3.8055     3.0506     4.2947 </r>
       <r>    -3.7433     4.4783     4.5735 </r>
       <r>    -3.6810     4.6545     4.8632 </r>
       <r>    -3.6188     2.2107     5.0009 </r>
       <r>    -3.5565     2.2137     5.1387 </r>
       <r>    -3.4943     2.8961     5.3190 </r>
       <r>    -3.4320     4.4782     5.5977 </r>
       <r>    -3.3698     5.2640     5.9254 </r>
       <r>    -3.3075     2.5193     6.0823 </r>
       <r>    -3.2452     1.1517     6.1540 </r>
       <r>    -3.1830     1.8665     6.2702 </r>
       <r>    -3.1207     1.4331     6.3594 </r>
       <r>    -3.0585     1.3140     6.4412 </r>
       <r>    -2.9962     2.1633     6.5758 </r>
       <r>    -2.9340     3.5666     6.7979 </r>
       <r>    -2.8717     3.8150     7.0354 </r>
       <r>    -2.8095     2.7943     7.2093 </r>
       <r>    -2.7472     2.8792     7.3886 </r>
       <r>    -2.6850     2.1433     7.5220 </r>
       <r>    -2.6227     0.7891     7.5711 </r>
       <r>    -2.5605     0.4029     7.5962 </r>
       <r>    -2.4982     0.7359     7.6420 </r>
       <r>    -2.4360     0.8780     7.6967 </r>
       <r>    -2.3737     0.7835     7.7454 </r>
       <r>    -2.3115     0.8533     7.7986 </r>
       <r>    -2.2492     0.8157     7.8493 </r>
       <r>    -2.1870     0.9670     7.9095 </r>
       <r>    -2.1247     1.2953     7.9902 </r>
       <r>    -2.0624     1.6478     8.0928 </r>
       <r>    -2.0002     1.3819     8.1788 </r>
       <r>    -1.9379     0.6024     8.2163 </r>
       <r>    -1.8757     0.2553     8.2322 </r>
       <r>    -1.8134     0.5613     8.2671 </r>
       <r>    -1.7512     0.6167     8.3055 </r>
       <r>    -1.6889     0.5007     8.3367 </r>
       <r>    -1.6267     0.5802     8.3728 </r>
       <r>    -1.5644     0.5309     8.4059 </r>
       <r>    -1.5022     0.6250     8.4448 </r>
       <r>    -1.4399     2.1648     8.5795 </r>
       <r>    -1.3777     5.4303     8.9176 </r>
       <r>    -1.3154     5.1510     9.2382 </r>
       <r>    -1.2532     3.6925     9.4681 </r>
       <r>    -1.1909     5.0556     9.7828 </r>
       <r>    -1.1287     5.4891    10.1245 </r>
       <r>    -1.0664     3.5375    10.3448 </r>
       <r>    -1.0042     4.2779    10.6111 </r>
       <r>    -0.9419     5.7882    10.9714 </r>
       <r>    -0.8797     3.3021    11.1770 </r>
       <r>    -0.8174     1.7797    11.2877 </r>
       <r>    -0.7551     1.9581    11.4096 </r>
       <r>    -0.6929     2.1087    11.5409 </r>
       <r>    -0.6306     4.8115    11.8404 </r>
       <r>    -0.5684     5.4869    12.1820 </r>
       <r>    -0.5061     2.5588    12.3413 </r>
       <r>    -0.4439     1.3888    12.4278 </r>
       <r>    -0.3816     1.0613    12.4938 </r>
       <r>    -0.3194     0.4505    12.5219 </r>
       <r>    -0.2571     1.8377    12.6363 </r>
       <r>    -0.1949     4.3422    12.9066 </r>
       <r>    -0.1326     3.3328    13.1141 </r>
       <r>    -0.0704     1.0131    13.1771 </r>
       <r>    -0.0081     0.2321    13.1916 </r>
       <r>     0.0541     0.6848    13.2342 </r>
       <r>     0.1164     1.6163    13.3348 </r>
       <r>     0.1786     0.8954    13.3906 </r>
       <r>     0.2409     0.6685    13.4322 </r>
       <r>     0.3031     3.4704    13.6482 </r>
       <r>     0.3654     3.9907    13.8967 </r>
       <r>     0.4277     1.2454    13.9742 </r>
       <r>     0.4899     0.3674    13.9971 </r>
       <r>     0.5522     0.7782    14.0455 </r>
       <r>     0.6144     0.8878    14.1008 </r>
       <r>     0.6767     0.3123    14.1202 </r>
       <r>     0.7389     0.2524    14.1359 </r>
       <r>     0.8012     1.2087    14.2112 </r>
       <r>     0.8634     2.4166    14.3616 </r>
       <r>     0.9257     2.2848    14.5038 </r>
       <r>     0.9879     0.7847    14.5527 </r>
       <r>     1.0502     0.3415    14.5739 </r>
       <r>     1.1124     0.2389    14.5888 </r>
       <r>     1.1747     0.7671    14.6366 </r>
       <r>     1.2369     1.1736    14.7096 </r>
       <r>     1.2992     1.3618    14.7944 </r>
       <r>     1.3614     1.6003    14.8940 </r>
       <r>     1.4237     2.3255    15.0388 </r>
       <r>     1.4859     5.9111    15.4068 </r>
       <r>     1.5482     6.8382    15.8325 </r>
       <r>     1.6104     5.3370    16.1647 </r>
       <r>     1.6727     4.5724    16.4494 </r>
       <r>     1.7350     2.5420    16.6076 </r>
       <r>     1.7972     1.5366    16.7033 </r>
       <r>     1.8595     4.2123    16.9655 </r>
       <r>     1.9217     7.1680    17.4117 </r>
       <r>     1.9840     6.4842    17.8154 </r>
       <r>     2.0462     3.2111    18.0153 </r>
       <r>     2.1085     1.7820    18.1262 </r>
       <r>     2.1707     4.1383    18.3838 </r>
       <r>     2.2330     5.9572    18.7547 </r>
       <r>     2.2952     5.5313    19.0990 </r>
       <r>     2.3575     3.9192    19.3430 </r>
       <r>     2.4197     2.5017    19.4987 </r>
       <r>     2.4820     4.3805    19.7714 </r>
       <r>     2.5442     6.7576    20.1921 </r>
       <r>     2.6065     5.7915    20.5526 </r>
       <r>     2.6687     4.3680    20.8246 </r>
       <r>     2.7310     5.0609    21.1396 </r>
       <r>     2.7932     5.6655    21.4923 </r>
       <r>     2.8555     5.9937    21.8654 </r>
       <r>     2.9178     7.0721    22.3057 </r>
       <r>     2.9800     6.7171    22.7238 </r>
       <r>     3.0423     6.1239    23.1051 </r>
       <r>     3.1045     5.1287    23.4243 </r>
       <r>     3.1668     4.6996    23.7169 </r>
       <r>     3.2290     6.5331    24.1236 </r>
       <r>     3.2913     7.0758    24.5641 </r>
       <r>     3.3535     6.2444    24.9528 </r>
       <r>     3.4158     4.0885    25.2073 </r>
       <r>     3.4780     3.8654    25.4480 </r>
       <r>     3.5403     6.1713    25.8321 </r>
       <r>     3.6025     6.7749    26.2539 </r>
       <r>     3.6648     6.8389    26.6796 </r>
       <r>     3.7270     5.6095    27.0288 </r>
       <r>     3.7893     3.8338    27.2675 </r>
       <r>     3.8515     3.0631    27.4582 </r>
       <r>     3.9138     3.7951    27.6944 </r>
       <r>     3.9760     5.9992    28.0679 </r>
       <r>     4.0383     6.8039    28.4915 </r>
       <r>     4.1006     5.3225    28.8228 </r>
       <r>     4.1628     5.7283    29.1794 </r>
       <r>     4.2251     4.9387    29.4869 </r>
       <r>     4.2873     2.7642    29.6589 </r>
       <r>     4.3496     3.0991    29.8519 </r>
       <r>     4.4118     3.6338    30.0781 </r>
       <r>     4.4741     3.5760    30.3007 </r>
       <r>     4.5363     4.3191    30.5696 </r>
       <r>     4.5986     3.8734    30.8107 </r>
       <r>     4.6608     3.0031    30.9976 </r>
       <r>     4.7231     1.5004    31.0910 </r>
       <r>     4.7853     1.0147    31.1542 </r>
       <r>     4.8476     1.8842    31.2715 </r>
       <r>     4.9098     2.3031    31.4149 </r>
       <r>     4.9721     1.8805    31.5320 </r>
       <r>     5.0343     1.0846    31.5995 </r>
       <r>     5.0966     1.0110    31.6624 </r>
       <r>     5.1588     1.2161    31.7381 </r>
       <r>     5.2211     1.3625    31.8229 </r>
       <r>     5.2833     1.1631    31.8953 </r>
       <r>     5.3456     0.6108    31.9334 </r>
       <r>     5.4079     0.4005    31.9583 </r>
       <r>     5.4701     0.3041    31.9772 </r>
       <r>     5.5324     0.2609    31.9935 </r>
       <r>     5.5946     0.0946    31.9993 </r>
       <r>     5.6569     0.0078    31.9998 </r>
       <r>     5.7191     0.0029    32.0000 </r>
       <r>     5.7814    -0.0003    32.0000 </r>
       <r>     5.8436     0.0008    32.0000 </r>
       <r>     5.9059    -0.0039    31.9998 </r>
       <r>     5.9681    -0.0019    31.9997 </r>
       <r>     6.0304     0.0657    32.0038 </r>
       <r>     6.0926     0.0882    32.0093 </r>
       <r>     6.1549     0.0727    32.0138 </r>
       <r>     6.2171     0.2132    32.0271 </r>
       <r>     6.2794     0.4323    32.0540 </r>
       <r>     6.3416     0.7829    32.1027 </r>
       <r>     6.4039     0.8067    32.1529 </r>
       <r>     6.4661     1.2188    32.2288 </r>
       <r>     6.5284     1.6242    32.3299 </r>
       <r>     6.5907     1.6389    32.4319 </r>
       <r>     6.6529     1.9754    32.5549 </r>
       <r>     6.7152     1.7095    32.6613 </r>
       <r>     6.7774     1.5741    32.7593 </r>
       <r>     6.8397     2.3435    32.9052 </r>
       <r>     6.9019     2.5826    33.0660 </r>
       <r>     6.9642     1.7572    33.1754 </r>
       <r>     7.0264     2.2097    33.3129 </r>
       <r>     7.0887     2.8938    33.4931 </r>
       <r>     7.1509     2.1372    33.6261 </r>
       <r>     7.2132     4.0489    33.8782 </r>
       <r>     7.2754     6.1615    34.2617 </r>
       <r>     7.3377     4.1462    34.5199 </r>
       <r>     7.3999     3.5396    34.7402 </r>
       <r>     7.4622     3.5258    34.9597 </r>
       <r>     7.5244     3.6029    35.1840 </r>
       <r>     7.5867     5.8916    35.5507 </r>
       <r>     7.6489     6.7217    35.9692 </r>
       <r>     7.7112     6.5068    36.3742 </r>
       <r>     7.7734     6.7334    36.7934 </r>
       <r>     7.8357     6.0613    37.1707 </r>
       <r>     7.8980     5.9433    37.5407 </r>
       <r>     7.9602     5.9651    37.9121 </r>
       <r>     8.0225     5.4862    38.2536 </r>
       <r>     8.0847     5.2045    38.5776 </r>
       <r>     8.1470     4.8215    38.8778 </r>
       <r>     8.2092     5.1127    39.1960 </r>
       <r>     8.2715     6.0020    39.5697 </r>
       <r>     8.3337     5.5671    39.9162 </r>
       <r>     8.3960     4.0417    40.1678 </r>
       <r>     8.4582     4.7214    40.4618 </r>
       <r>     8.5205     4.1925    40.7228 </r>
       <r>     8.5827     2.3685    40.8702 </r>
       <r>     8.6450     3.9774    41.1178 </r>
       <r>     8.7072     6.4037    41.5165 </r>
       <r>     8.7695     6.8768    41.9445 </r>
       <r>     8.8317     7.2596    42.3965 </r>
       <r>     8.8940     8.5159    42.9266 </r>
       <r>     8.9562     8.6568    43.4655 </r>
       <r>     9.0185     5.7487    43.8234 </r>
       <r>     9.0808     4.4896    44.1029 </r>
       <r>     9.1430     5.2913    44.4323 </r>
       <r>     9.2053     6.0616    44.8096 </r>
       <r>     9.2675     6.4820    45.2131 </r>
       <r>     9.3298     6.4613    45.6154 </r>
       <r>     9.3920     5.3260    45.9469 </r>
       <r>     9.4543     4.1771    46.2070 </r>
       <r>     9.5165     4.8590    46.5095 </r>
       <r>     9.5788     4.3046    46.7774 </r>
       <r>     9.6410     2.1518    46.9114 </r>
       <r>     9.7033     2.2844    47.0536 </r>
       <r>     9.7655     3.1091    47.2471 </r>
       <r>     9.8278     3.0702    47.4383 </r>
       <r>     9.8900     2.1267    47.5707 </r>
       <r>     9.9523     1.4477    47.6608 </r>
       <r>    10.0145     1.6894    47.7660 </r>
       <r>    10.0768     1.3077    47.8474 </r>
       <r>    10.1390     0.6860    47.8901 </r>
       <r>    10.2013     0.5094    47.9218 </r>
       <r>    10.2636     0.6525    47.9624 </r>
       <r>    10.3258     0.2762    47.9796 </r>
       <r>    10.3881    -0.0067    47.9792 </r>
       <r>    10.4503     0.1686    47.9897 </r>
       <r>    10.5126     0.1685    48.0002 </r>
       <r>    10.5748     0.0080    48.0006 </r>
       <r>    10.6371    -0.0120    47.9999 </r>
       <r>    10.6993     0.0009    48.0000 </r>
       <r>    10.7616     0.0006    48.0000 </r>
       <r>    10.8238     0.0000    48.0000 </r>
       <r>    10.8861     0.0000    48.0000 </r>
       <r>    10.9483     0.0000    48.0000 </r>
       <r>    11.0106     0.0000    48.0000 </r>
       <r>    11.0728     0.0000    48.0000 </r>
       <r>    11.1351     0.0000    48.0000 </r>
       <r>    11.1973     0.0000    48.0000 </r>
       <r>    11.2596     0.0000    48.0000 </r>
       <r>    11.3218     0.0000    48.0000 </r>
       <r>    11.3841     0.0000    48.0000 </r>
       <r>    11.4463     0.0000    48.0000 </r>
      </set>
     </set>
    </array>
   </total>
  </dos>
 </calculation>
 <structure name="finalpos" >
  <crystal>
   <varray name="basis" >
    <v>       5.41327970       0.00000000       0.00000000 </v>
    <v>       0.00000000       5.52375479       0.00000000 </v>
    <v>       0.00000000       0.00000000       5.52375479 </v>
   </varray>
   <i name="volume">    165.16927009 </i>
   <varray name="rec_basis" >
    <v>       0.18473089       0.00000000       0.00000000 </v>
    <v>       0.00000000       0.18103628       0.00000000 </v>
    <v>       0.00000000       0.00000000       0.18103628 </v>
   </varray>
  </crystal>
  <varray name="positions" >
   <v>       0.00000000       0.00000000       0.00000000 </v>
   <v>       0.25000000       0.25000000       0.25000000 </v>
   <v>       0.50000000       0.50000000       0.00000000 </v>
   <v>       0.75000000       0.75000000       0.25000000 </v>
   <v>       0.50000000       0.00000000       0.50000000 </v>
   <v>       0.75000000       0.25000000       0.75000000 </v>
   <v>       0.00000000       0.50000000       0.50000000 </v>
   <v>       0.25000000       0.75000000       0.75000000 </v>
  </varray>
 </structure>
</modeling>
