<?xml version="1.0" encoding="ISO-8859-1"?>
<modeling>
 <generator>
  <i name="program" type="string">vasp </i>
  <i name="version" type="string">5.4.1  </i>
  <i name="subversion" type="string">24Jun15 (build Jul  8 2015 13:29:37) complex                          parallel </i>
  <i name="platform" type="string">FX10FRT </i>
  <i name="date" type="string">2016 02 20 </i>
  <i name="time" type="string">07:00:35 </i>
 </generator>
 <incar>
  <i type="string" name="PREC">accurate</i>
  <i type="string" name="ALGO"> Normal</i>
  <i type="int" name="ISPIN">     1</i>
  <i type="int" name="IBRION">    -1</i>
  <i name="EDIFF">      0.00010000</i>
  <i type="int" name="NSW">     0</i>
  <i type="int" name="ISIF">     2</i>
  <i name="ENCUT">    400.00000000</i>
  <i type="int" name="ISMEAR">     2</i>
  <i name="SIGMA">      0.10000000</i>
  <i type="int" name="NWRITE">     1</i>
  <v type="int" name="KPOINT_BSE">    -1     0     0     0</v>
 </incar>
 <kpoints>
  <generation param="Monkhorst-Pack">
   <v type="int" name="divisions">      16       16       16 </v>
   <v name="usershift">      0.00000000       0.00000000       0.00000000 </v>
   <v name="genvec1">      0.06250000       0.00000000       0.00000000 </v>
   <v name="genvec2">      0.00000000       0.06250000       0.00000000 </v>
   <v name="genvec3">      0.00000000       0.00000000       0.06250000 </v>
   <v name="shift">      0.50000000       0.50000000       0.50000000 </v>
  </generation>
  <varray name="kpointlist" >
   <v>       0.03125000       0.03125000       0.03125000 </v>
   <v>       0.09375000       0.03125000       0.03125000 </v>
   <v>       0.15625000       0.03125000       0.03125000 </v>
   <v>       0.21875000       0.03125000       0.03125000 </v>
   <v>       0.28125000       0.03125000       0.03125000 </v>
   <v>       0.34375000       0.03125000       0.03125000 </v>
   <v>       0.40625000       0.03125000       0.03125000 </v>
   <v>       0.46875000       0.03125000       0.03125000 </v>
   <v>       0.09375000       0.09375000       0.03125000 </v>
   <v>       0.15625000       0.09375000       0.03125000 </v>
   <v>       0.21875000       0.09375000       0.03125000 </v>
   <v>       0.28125000       0.09375000       0.03125000 </v>
   <v>       0.34375000       0.09375000       0.03125000 </v>
   <v>       0.40625000       0.09375000       0.03125000 </v>
   <v>       0.46875000       0.09375000       0.03125000 </v>
   <v>       0.15625000       0.15625000       0.03125000 </v>
   <v>       0.21875000       0.15625000       0.03125000 </v>
   <v>       0.28125000       0.15625000       0.03125000 </v>
   <v>       0.34375000       0.15625000       0.03125000 </v>
   <v>       0.40625000       0.15625000       0.03125000 </v>
   <v>       0.46875000       0.15625000       0.03125000 </v>
   <v>       0.21875000       0.21875000       0.03125000 </v>
   <v>       0.28125000       0.21875000       0.03125000 </v>
   <v>       0.34375000       0.21875000       0.03125000 </v>
   <v>       0.40625000       0.21875000       0.03125000 </v>
   <v>       0.46875000       0.21875000       0.03125000 </v>
   <v>       0.28125000       0.28125000       0.03125000 </v>
   <v>       0.34375000       0.28125000       0.03125000 </v>
   <v>       0.40625000       0.28125000       0.03125000 </v>
   <v>       0.46875000       0.28125000       0.03125000 </v>
   <v>       0.34375000       0.34375000       0.03125000 </v>
   <v>       0.40625000       0.34375000       0.03125000 </v>
   <v>       0.46875000       0.34375000       0.03125000 </v>
   <v>       0.40625000       0.40625000       0.03125000 </v>
   <v>       0.46875000       0.40625000       0.03125000 </v>
   <v>       0.46875000       0.46875000       0.03125000 </v>
   <v>       0.09375000       0.09375000       0.09375000 </v>
   <v>       0.15625000       0.09375000       0.09375000 </v>
   <v>       0.21875000       0.09375000       0.09375000 </v>
   <v>       0.28125000       0.09375000       0.09375000 </v>
   <v>       0.34375000       0.09375000       0.09375000 </v>
   <v>       0.40625000       0.09375000       0.09375000 </v>
   <v>       0.46875000       0.09375000       0.09375000 </v>
   <v>       0.15625000       0.15625000       0.09375000 </v>
   <v>       0.21875000       0.15625000       0.09375000 </v>
   <v>       0.28125000       0.15625000       0.09375000 </v>
   <v>       0.34375000       0.15625000       0.09375000 </v>
   <v>       0.40625000       0.15625000       0.09375000 </v>
   <v>       0.46875000       0.15625000       0.09375000 </v>
   <v>       0.21875000       0.21875000       0.09375000 </v>
   <v>       0.28125000       0.21875000       0.09375000 </v>
   <v>       0.34375000       0.21875000       0.09375000 </v>
   <v>       0.40625000       0.21875000       0.09375000 </v>
   <v>       0.46875000       0.21875000       0.09375000 </v>
   <v>       0.28125000       0.28125000       0.09375000 </v>
   <v>       0.34375000       0.28125000       0.09375000 </v>
   <v>       0.40625000       0.28125000       0.09375000 </v>
   <v>       0.46875000       0.28125000       0.09375000 </v>
   <v>       0.34375000       0.34375000       0.09375000 </v>
   <v>       0.40625000       0.34375000       0.09375000 </v>
   <v>       0.46875000       0.34375000       0.09375000 </v>
   <v>       0.40625000       0.40625000       0.09375000 </v>
   <v>       0.46875000       0.40625000       0.09375000 </v>
   <v>       0.46875000       0.46875000       0.09375000 </v>
   <v>       0.15625000       0.15625000       0.15625000 </v>
   <v>       0.21875000       0.15625000       0.15625000 </v>
   <v>       0.28125000       0.15625000       0.15625000 </v>
   <v>       0.34375000       0.15625000       0.15625000 </v>
   <v>       0.40625000       0.15625000       0.15625000 </v>
   <v>       0.46875000       0.15625000       0.15625000 </v>
   <v>       0.21875000       0.21875000       0.15625000 </v>
   <v>       0.28125000       0.21875000       0.15625000 </v>
   <v>       0.34375000       0.21875000       0.15625000 </v>
   <v>       0.40625000       0.21875000       0.15625000 </v>
   <v>       0.46875000       0.21875000       0.15625000 </v>
   <v>       0.28125000       0.28125000       0.15625000 </v>
   <v>       0.34375000       0.28125000       0.15625000 </v>
   <v>       0.40625000       0.28125000       0.15625000 </v>
   <v>       0.46875000       0.28125000       0.15625000 </v>
   <v>       0.34375000       0.34375000       0.15625000 </v>
   <v>       0.40625000       0.34375000       0.15625000 </v>
   <v>       0.46875000       0.34375000       0.15625000 </v>
   <v>       0.40625000       0.40625000       0.15625000 </v>
   <v>       0.46875000       0.40625000       0.15625000 </v>
   <v>       0.46875000       0.46875000       0.15625000 </v>
   <v>       0.21875000       0.21875000       0.21875000 </v>
   <v>       0.28125000       0.21875000       0.21875000 </v>
   <v>       0.34375000       0.21875000       0.21875000 </v>
   <v>       0.40625000       0.21875000       0.21875000 </v>
   <v>       0.46875000       0.21875000       0.21875000 </v>
   <v>       0.28125000       0.28125000       0.21875000 </v>
   <v>       0.34375000       0.28125000       0.21875000 </v>
   <v>       0.40625000       0.28125000       0.21875000 </v>
   <v>       0.46875000       0.28125000       0.21875000 </v>
   <v>       0.34375000       0.34375000       0.21875000 </v>
   <v>       0.40625000       0.34375000       0.21875000 </v>
   <v>       0.46875000       0.34375000       0.21875000 </v>
   <v>       0.40625000       0.40625000       0.21875000 </v>
   <v>       0.46875000       0.40625000       0.21875000 </v>
   <v>       0.46875000       0.46875000       0.21875000 </v>
   <v>       0.28125000       0.28125000       0.28125000 </v>
   <v>       0.34375000       0.28125000       0.28125000 </v>
   <v>       0.40625000       0.28125000       0.28125000 </v>
   <v>       0.46875000       0.28125000       0.28125000 </v>
   <v>       0.34375000       0.34375000       0.28125000 </v>
   <v>       0.40625000       0.34375000       0.28125000 </v>
   <v>       0.46875000       0.34375000       0.28125000 </v>
   <v>       0.40625000       0.40625000       0.28125000 </v>
   <v>       0.46875000       0.40625000       0.28125000 </v>
   <v>       0.46875000       0.46875000       0.28125000 </v>
   <v>       0.34375000       0.34375000       0.34375000 </v>
   <v>       0.40625000       0.34375000       0.34375000 </v>
   <v>       0.46875000       0.34375000       0.34375000 </v>
   <v>       0.40625000       0.40625000       0.34375000 </v>
   <v>       0.46875000       0.40625000       0.34375000 </v>
   <v>       0.46875000       0.46875000       0.34375000 </v>
   <v>       0.40625000       0.40625000       0.40625000 </v>
   <v>       0.46875000       0.40625000       0.40625000 </v>
   <v>       0.46875000       0.46875000       0.40625000 </v>
   <v>       0.46875000       0.46875000       0.46875000 </v>
  </varray>
  <varray name="weights" >
   <v>       0.00195312 </v>
   <v>       0.00585938 </v>
   <v>       0.00585938 </v>
   <v>       0.00585938 </v>
   <v>       0.00585938 </v>
   <v>       0.00585938 </v>
   <v>       0.00585938 </v>
   <v>       0.00585938 </v>
   <v>       0.00585938 </v>
   <v>       0.01171875 </v>
   <v>       0.01171875 </v>
   <v>       0.01171875 </v>
   <v>       0.01171875 </v>
   <v>       0.01171875 </v>
   <v>       0.01171875 </v>
   <v>       0.00585938 </v>
   <v>       0.01171875 </v>
   <v>       0.01171875 </v>
   <v>       0.01171875 </v>
   <v>       0.01171875 </v>
   <v>       0.01171875 </v>
   <v>       0.00585938 </v>
   <v>       0.01171875 </v>
   <v>       0.01171875 </v>
   <v>       0.01171875 </v>
   <v>       0.01171875 </v>
   <v>       0.00585938 </v>
   <v>       0.01171875 </v>
   <v>       0.01171875 </v>
   <v>       0.01171875 </v>
   <v>       0.00585938 </v>
   <v>       0.01171875 </v>
   <v>       0.01171875 </v>
   <v>       0.00585938 </v>
   <v>       0.01171875 </v>
   <v>       0.00585938 </v>
   <v>       0.00195312 </v>
   <v>       0.00585938 </v>
   <v>       0.00585938 </v>
   <v>       0.00585938 </v>
   <v>       0.00585938 </v>
   <v>       0.00585938 </v>
   <v>       0.00585938 </v>
   <v>       0.00585938 </v>
   <v>       0.01171875 </v>
   <v>       0.01171875 </v>
   <v>       0.01171875 </v>
   <v>       0.01171875 </v>
   <v>       0.01171875 </v>
   <v>       0.00585938 </v>
   <v>       0.01171875 </v>
   <v>       0.01171875 </v>
   <v>       0.01171875 </v>
   <v>       0.01171875 </v>
   <v>       0.00585938 </v>
   <v>       0.01171875 </v>
   <v>       0.01171875 </v>
   <v>       0.01171875 </v>
   <v>       0.00585938 </v>
   <v>       0.01171875 </v>
   <v>       0.01171875 </v>
   <v>       0.00585938 </v>
   <v>       0.01171875 </v>
   <v>       0.00585938 </v>
   <v>       0.00195312 </v>
   <v>       0.00585938 </v>
   <v>       0.00585938 </v>
   <v>       0.00585938 </v>
   <v>       0.00585938 </v>
   <v>       0.00585938 </v>
   <v>       0.00585938 </v>
   <v>       0.01171875 </v>
   <v>       0.01171875 </v>
   <v>       0.01171875 </v>
   <v>       0.01171875 </v>
   <v>       0.00585938 </v>
   <v>       0.01171875 </v>
   <v>       0.01171875 </v>
   <v>       0.01171875 </v>
   <v>       0.00585938 </v>
   <v>       0.01171875 </v>
   <v>       0.01171875 </v>
   <v>       0.00585938 </v>
   <v>       0.01171875 </v>
   <v>       0.00585938 </v>
   <v>       0.00195312 </v>
   <v>       0.00585938 </v>
   <v>       0.00585938 </v>
   <v>       0.00585938 </v>
   <v>       0.00585938 </v>
   <v>       0.00585938 </v>
   <v>       0.01171875 </v>
   <v>       0.01171875 </v>
   <v>       0.01171875 </v>
   <v>       0.00585938 </v>
   <v>       0.01171875 </v>
   <v>       0.01171875 </v>
   <v>       0.00585938 </v>
   <v>       0.01171875 </v>
   <v>       0.00585938 </v>
   <v>       0.00195312 </v>
   <v>       0.00585938 </v>
   <v>       0.00585938 </v>
   <v>       0.00585938 </v>
   <v>       0.00585938 </v>
   <v>       0.01171875 </v>
   <v>       0.01171875 </v>
   <v>       0.00585938 </v>
   <v>       0.01171875 </v>
   <v>       0.00585938 </v>
   <v>       0.00195312 </v>
   <v>       0.00585938 </v>
   <v>       0.00585938 </v>
   <v>       0.00585938 </v>
   <v>       0.01171875 </v>
   <v>       0.00585938 </v>
   <v>       0.00195312 </v>
   <v>       0.00585938 </v>
   <v>       0.00585938 </v>
   <v>       0.00195312 </v>
  </varray>
 </kpoints>
 <parameters>
  <separator name="general" >
   <i type="string" name="SYSTEM">unknown system</i>
   <i type="logical" name="LCOMPAT"> F  </i>
  </separator>
  <separator name="electronic" >
   <i type="string" name="PREC">accura</i>
   <i name="ENMAX">    400.00000000</i>
   <i name="ENAUG">    322.06900000</i>
   <i name="EDIFF">      0.00010000</i>
   <i type="int" name="IALGO">    38</i>
   <i type="int" name="IWAVPR">    10</i>
   <i type="int" name="NBANDS">     8</i>
   <i name="NELECT">      8.00000000</i>
   <i type="int" name="TURBO">     0</i>
   <i type="int" name="IRESTART">     0</i>
   <i type="int" name="NREBOOT">     0</i>
   <i type="int" name="NMIN">     0</i>
   <i name="EREF">      0.00000000</i>
   <separator name="electronic smearing" >
    <i type="int" name="ISMEAR">     2</i>
    <i name="SIGMA">      0.10000000</i>
    <i name="KSPACING">      0.50000000</i>
    <i type="logical" name="KGAMMA"> T  </i>
   </separator>
   <separator name="electronic projectors" >
    <i type="logical" name="LREAL"> F  </i>
    <v name="ROPT">      0.00000000</v>
    <i type="int" name="LMAXPAW">  -100</i>
    <i type="int" name="LMAXMIX">     2</i>
    <i type="logical" name="NLSPLINE"> F  </i>
   </separator>
   <separator name="electronic startup" >
    <i type="int" name="ISTART">     0</i>
    <i type="int" name="ICHARG">     2</i>
    <i type="int" name="INIWAV">     1</i>
   </separator>
   <separator name="electronic spin" >
    <i type="int" name="ISPIN">     1</i>
    <i type="logical" name="LNONCOLLINEAR"> F  </i>
    <v name="MAGMOM">      1.00000000      1.00000000</v>
    <i name="NUPDOWN">     -1.00000000</i>
    <i type="logical" name="LSORBIT"> F  </i>
    <v name="SAXIS">      0.00000000      0.00000000      1.00000000</v>
    <i type="logical" name="LSPIRAL"> F  </i>
    <v name="QSPIRAL">      0.00000000      0.00000000      0.00000000</v>
    <i type="logical" name="LZEROZ"> F  </i>
   </separator>
   <separator name="electronic exchange-correlation" >
    <i type="logical" name="LASPH"> F  </i>
    <i type="logical" name="LMETAGGA"> F  </i>
   </separator>
   <separator name="electronic convergence" >
    <i type="int" name="NELM">    60</i>
    <i type="int" name="NELMDL">    -5</i>
    <i type="int" name="NELMIN">     2</i>
    <i name="ENINI">    400.00000000</i>
    <separator name="electronic convergence detail" >
     <i type="logical" name="LDIAG"> T  </i>
     <i type="logical" name="LSUBROT"> F  </i>
     <i name="WEIMIN">      0.00000000</i>
     <i name="EBREAK">      0.00000313</i>
     <i name="DEPER">      0.30000000</i>
     <i type="int" name="NRMM">     4</i>
     <i name="TIME">      0.40000000</i>
    </separator>
   </separator>
   <separator name="electronic mixer" >
    <i name="AMIX">      0.40000000</i>
    <i name="BMIX">      1.00000000</i>
    <i name="AMIN">      0.10000000</i>
    <i name="AMIX_MAG">      1.60000000</i>
    <i name="BMIX_MAG">      1.00000000</i>
    <separator name="electronic mixer details" >
     <i type="int" name="IMIX">     4</i>
     <i type="logical" name="MIXFIRST"> F  </i>
     <i type="int" name="MAXMIX">   -45</i>
     <i name="WC">    100.00000000</i>
     <i type="int" name="INIMIX">     1</i>
     <i type="int" name="MIXPRE">     1</i>
     <i type="int" name="MREMOVE">     5</i>
    </separator>
   </separator>
   <separator name="electronic dipolcorrection" >
    <i type="logical" name="LDIPOL"> F  </i>
    <i type="logical" name="LMONO"> F  </i>
    <i type="int" name="IDIPOL">     0</i>
    <i name="EPSILON">      1.00000000</i>
    <v name="DIPOL">   -100.00000000   -100.00000000   -100.00000000</v>
    <i name="EFIELD">      0.00000000</i>
   </separator>
  </separator>
  <separator name="grids" >
   <i type="int" name="NGX">    20</i>
   <i type="int" name="NGY">    20</i>
   <i type="int" name="NGZ">    20</i>
   <i type="int" name="NGXF">    40</i>
   <i type="int" name="NGYF">    40</i>
   <i type="int" name="NGZF">    40</i>
   <i type="logical" name="ADDGRID"> F  </i>
  </separator>
  <separator name="ionic" >
   <i type="int" name="NSW">     0</i>
   <i type="int" name="IBRION">    -1</i>
   <i type="int" name="ISIF">     2</i>
   <i name="PSTRESS">      0.00000000</i>
   <i name="EDIFFG">      0.00100000</i>
   <i type="int" name="NFREE">     0</i>
   <i name="POTIM">      0.50000000</i>
   <i name="SMASS">     -3.00000000</i>
   <i name="SCALEE">      1.00000000</i>
  </separator>
  <separator name="ionic md" >
   <i name="TEBEG">      0.00010000</i>
   <i name="TEEND">      0.00010000</i>
   <i type="int" name="NBLOCK">     1</i>
   <i type="int" name="KBLOCK">     1</i>
   <i type="int" name="NPACO">   256</i>
   <i name="APACO">     16.00000000</i>
  </separator>
  <separator name="symmetry" >
   <i type="int" name="ISYM">     2</i>
   <i name="SYMPREC">      0.00001000</i>
  </separator>
  <separator name="dos" >
   <i type="logical" name="LORBIT"> F  </i>
   <v name="RWIGS">     -1.00000000</v>
   <i type="int" name="NEDOS">   301</i>
   <i name="EMIN">     10.00000000</i>
   <i name="EMAX">    -10.00000000</i>
   <i name="EFERMI">      0.00000000</i>
  </separator>
  <separator name="writing" >
   <i type="int" name="NWRITE">     1</i>
   <i type="logical" name="LWAVE"> T  </i>
   <i type="logical" name="LCHARG"> T  </i>
   <i type="logical" name="LPARD"> F  </i>
   <i type="logical" name="LVTOT"> F  </i>
   <i type="logical" name="LVHAR"> F  </i>
   <i type="logical" name="LELF"> F  </i>
   <i type="logical" name="LOPTICS"> F  </i>
   <v name="STM">      0.00000000      0.00000000      0.00000000      0.00000000      0.00000000      0.00000000      0.00000000</v>
  </separator>
  <separator name="performance" >
   <i type="int" name="NPAR">     8</i>
   <i type="int" name="NSIM">     4</i>
   <i type="int" name="NBLK">    -1</i>
   <i type="logical" name="LPLANE"> T  </i>
   <i type="logical" name="LSCALAPACK"> T  </i>
   <i type="logical" name="LSCAAWARE"> F  </i>
   <i type="logical" name="LSCALU"> F  </i>
   <i type="logical" name="LASYNC"> F  </i>
   <i type="logical" name="LORBITALREAL"> F  </i>
  </separator>
  <separator name="miscellaneous" >
   <i type="int" name="IDIOT">     3</i>
   <i type="logical" name="LMUSIC"> F  </i>
   <v name="POMASS">     28.08500000</v>
   <v name="DARWINR">      0.00000000</v>
   <v name="DARWINV">      1.00000000</v>
   <i type="logical" name="LCORR"> T  </i>
  </separator>
  <i type="logical" name="GGA_COMPAT"> T  </i>
  <i type="logical" name="LBERRY"> F  </i>
  <i type="int" name="ICORELEVEL">     0</i>
  <i type="logical" name="LDAU"> F  </i>
  <i type="int" name="I_CONSTRAINED_M">     0</i>
  <separator name="electronic exchange-correlation" >
   <i type="string" name="GGA">--</i>
   <i type="int" name="VOSKOWN">     0</i>
   <i type="logical" name="LHFCALC"> F  </i>
   <i type="string" name="PRECFOCK"></i>
   <i type="logical" name="LSYMGRAD"> F  </i>
   <i type="logical" name="LHFONE"> F  </i>
   <i type="logical" name="LRHFCALC"> F  </i>
   <i type="logical" name="LTHOMAS"> F  </i>
   <i type="logical" name="LMODELHF"> F  </i>
   <i name="ENCUT4O">     -1.00000000</i>
   <i type="int" name="EXXOEP">     0</i>
   <i type="int" name="FOURORBIT">     0</i>
   <i name="AEXX">      0.00000000</i>
   <i name="HFALPHA">      0.00000000</i>
   <i name="MCALPHA">      0.00000000</i>
   <i name="ALDAX">      1.00000000</i>
   <i name="AGGAX">      1.00000000</i>
   <i name="ALDAC">      1.00000000</i>
   <i name="AGGAC">      1.00000000</i>
   <i type="int" name="NKREDX">     1</i>
   <i type="int" name="NKREDY">     1</i>
   <i type="int" name="NKREDZ">     1</i>
   <i type="logical" name="SHIFTRED"> F  </i>
   <i type="logical" name="ODDONLY"> F  </i>
   <i type="logical" name="EVENONLY"> F  </i>
   <i type="int" name="LMAXFOCK">     0</i>
   <i type="int" name="NMAXFOCKAE">     0</i>
   <i type="logical" name="LFOCKAEDFT"> F  </i>
   <i name="HFSCREEN">      0.00000000</i>
   <i name="HFSCREENC">      0.00000000</i>
   <i type="int" name="NBANDSGWLOW">     0</i>
  </separator>
  <separator name="vdW DFT" >
   <i type="logical" name="LUSE_VDW"> F  </i>
   <i name="Zab_VDW">     -0.84910000</i>
   <i name="PARAM1">      0.12340000</i>
   <i name="PARAM2">      1.00000000</i>
   <i name="PARAM3">      0.00000000</i>
  </separator>
  <separator name="model GW" >
   <i type="int" name="MODEL_GW">     0</i>
   <i name="MODEL_EPS0">      8.53314348</i>
   <i name="MODEL_ALPHA">      1.00000000</i>
  </separator>
  <separator name="linear response parameters" >
   <i type="logical" name="LEPSILON"> F  </i>
   <i type="logical" name="LRPA"> F  </i>
   <i type="logical" name="LNABLA"> F  </i>
   <i type="logical" name="LVEL"> F  </i>
   <i type="int" name="KINTER">     0</i>
   <i name="CSHIFT">      0.10000000</i>
   <i name="OMEGAMAX">     -1.00000000</i>
   <i name="DEG_THRESHOLD">      0.00200000</i>
  </separator>
  <separator name="orbital magnetization" >
   <i type="logical" name="NUCIND"> F  </i>
   <v name="MAGPOS">      0.00000000      0.00000000      0.00000000</v>
   <i type="logical" name="LNICSALL"> T  </i>
   <i type="logical" name="ORBITALMAG"> F  </i>
   <i type="logical" name="LMAGBLOCH"> F  </i>
   <i type="logical" name="LCHIMAG"> F  </i>
   <i type="logical" name="LGAUGE"> T  </i>
   <i type="int" name="MAGATOM">     0</i>
   <v name="MAGDIPOL">      0.00000000      0.00000000      0.00000000</v>
   <v name="AVECCONST">      0.00000000      0.00000000      0.00000000</v>
  </separator>
  <separator name="response functions" >
   <i type="logical" name="LADDER"> F  </i>
   <i type="logical" name="LFXC"> F  </i>
   <i type="logical" name="LHARTREE"> T  </i>
   <i type="int" name="IBSE">     0</i>
   <v type="int" name="KPOINT">    -1     0     0     0</v>
   <i type="logical" name="LTCTE"> F  </i>
   <i type="logical" name="LTETE"> F  </i>
   <i type="logical" name="LTRIPLET"> F  </i>
   <i type="logical" name="LFXCEPS"> F  </i>
   <i type="logical" name="LFXHEG"> F  </i>
   <i type="int" name="NATURALO">     0</i>
   <i type="logical" name="L2ORDER"> F  </i>
   <i type="logical" name="LUSEW"> F  </i>
   <i name="ENCUTGW">     -2.00000000</i>
   <i name="ENCUTGWSOFT">     -2.00000000</i>
   <i name="ENCUTLF">     -1.00000000</i>
   <i type="int" name="LMAXMP2">    -1</i>
   <i name="SCISSOR">      0.00000000</i>
   <i type="int" name="NOMEGA">     0</i>
   <i type="int" name="NOMEGAR">     0</i>
   <i type="int" name="NBANDSGW">    -1</i>
   <i type="int" name="NBANDSO">    -1</i>
   <i type="int" name="NBANDSV">    -1</i>
   <i type="int" name="NELM">     1</i>
   <i type="int" name="NELMHF">     1</i>
   <i type="int" name="DIM">     3</i>
   <i type="int" name="ANTIRES">     0</i>
   <i name="OMEGAMAX">    -30.00000000</i>
   <i name="OMEGAMIN">    -30.00000000</i>
   <i name="OMEGATL">   -200.00000000</i>
   <i type="int" name="OMEGAGRID">     0</i>
   <i name="CSHIFT">     -0.10000000</i>
   <i type="logical" name="SELFENERGY"> F  </i>
   <i type="logical" name="LSPECTRAL"> F  </i>
   <i type="logical" name="LSPECTRALGW"> F  </i>
   <i type="logical" name="LSINGLES"> F  </i>
   <i type="logical" name="LFERMIGW"> F  </i>
   <i type="logical" name="ODDONLYGW"> F  </i>
   <i type="logical" name="EVENONLYGW"> F  </i>
   <i type="int" name="NKREDLFX">     1</i>
   <i type="int" name="NKREDLFY">     1</i>
   <i type="int" name="NKREDLFZ">     1</i>
   <i type="int" name="MAXMEM">  1800</i>
   <i type="int" name="TELESCOPE">     0</i>
   <i type="int" name="TAUPAR">     1</i>
   <i type="int" name="OMEGAPAR">    -1</i>
   <i name="LAMBDA">      1.00000000</i>
  </separator>
  <separator name="External order field" >
   <i name="OFIELD_KAPPA">      0.00000000</i>
   <v name="OFIELD_K">      0.00000000      0.00000000      0.00000000</v>
   <i name="OFIELD_Q6_NEAR">      0.00000000</i>
   <i name="OFIELD_Q6_FAR">      0.00000000</i>
   <i name="OFIELD_A">      0.00000000</i>
  </separator>
 </parameters>
 <atominfo>
  <atoms>       2 </atoms>
  <types>       1 </types>
  <array name="atoms" >
   <dimension dim="1">ion</dimension>
   <field type="string">element</field>
   <field type="int">atomtype</field>
   <set>
    <rc><c>Si</c><c>   1</c></rc>
    <rc><c>Si</c><c>   1</c></rc>
   </set>
  </array>
  <array name="atomtypes" >
   <dimension dim="1">type</dimension>
   <field type="int">atomspertype</field>
   <field type="string">element</field>
   <field>mass</field>
   <field>valence</field>
   <field type="string">pseudopotential</field>
   <set>
    <rc><c>   2</c><c>Si</c><c>     28.08500000</c><c>      4.00000000</c><c>  PAW_PBE Si 05Jan2001                  </c></rc>
   </set>
  </array>
 </atominfo>
 <structure name="initialpos" >
  <crystal>
   <varray name="basis" >
    <v>       3.05254867       0.00000000       0.00000000 </v>
    <v>       0.00000000       3.05254867       0.00000000 </v>
    <v>       0.00000000       0.00000000       3.05254867 </v>
   </varray>
   <i name="volume">     28.44381160 </i>
   <varray name="rec_basis" >
    <v>       0.32759510       0.00000000       0.00000000 </v>
    <v>       0.00000000       0.32759510       0.00000000 </v>
    <v>       0.00000000       0.00000000       0.32759510 </v>
   </varray>
  </crystal>
  <varray name="positions" >
   <v>       0.00000000       0.00000000       0.00000000 </v>
   <v>       0.50000000       0.50000000       0.50000000 </v>
  </varray>
 </structure>
 <calculation>
  <scstep>
   <time name="dav">    0.36    0.39</time>
   <time name="total">    0.41    0.45</time>
   <energy>
    <i name="alphaZ">      4.73398309 </i>
    <i name="ewald">   -274.67768345 </i>
    <i name="hartreedc">     -1.06322172 </i>
    <i name="XCdc">    -17.52447169 </i>
    <i name="pawpsdc">    176.24759923 </i>
    <i name="pawaedc">   -141.06103558 </i>
    <i name="eentropy">     -0.00017823 </i>
    <i name="bandstr">     49.76573228 </i>
    <i name="atom">    206.13149246 </i>
    <i name="e_fr_energy">      2.55221639 </i>
    <i name="e_wo_entrp">      2.55239462 </i>
    <i name="e_0_energy">      2.55226095 </i>
   </energy>
  </scstep>
  <scstep>
   <time name="dav">    0.53    0.53</time>
   <time name="total">    0.54    0.56</time>
   <energy>
    <i name="e_fr_energy">     -9.67299717 </i>
    <i name="e_wo_entrp">     -9.67297244 </i>
    <i name="e_0_energy">     -9.67299098 </i>
   </energy>
  </scstep>
  <scstep>
   <time name="dav">    0.49    0.49</time>
   <time name="total">    0.50    0.51</time>
   <energy>
    <i name="e_fr_energy">     -9.82851285 </i>
    <i name="e_wo_entrp">     -9.82861228 </i>
    <i name="e_0_energy">     -9.82853771 </i>
   </energy>
  </scstep>
  <scstep>
   <time name="dav">    0.50    0.52</time>
   <time name="total">    0.51    0.53</time>
   <energy>
    <i name="e_fr_energy">     -9.82886877 </i>
    <i name="e_wo_entrp">     -9.82896709 </i>
    <i name="e_0_energy">     -9.82889335 </i>
   </energy>
  </scstep>
  <scstep>
   <time name="dav">    0.50    0.49</time>
   <time name="total">    0.53    0.55</time>
   <energy>
    <i name="e_fr_energy">     -9.82886988 </i>
    <i name="e_wo_entrp">     -9.82896819 </i>
    <i name="e_0_energy">     -9.82889445 </i>
   </energy>
  </scstep>
  <scstep>
   <time name="dav">    0.45    0.45</time>
   <time name="total">    0.47    0.49</time>
   <energy>
    <i name="e_fr_energy">     -9.80657229 </i>
    <i name="e_wo_entrp">     -9.80659973 </i>
    <i name="e_0_energy">     -9.80657915 </i>
   </energy>
  </scstep>
  <scstep>
   <time name="dav">    0.45    0.44</time>
   <time name="total">    0.47    0.49</time>
   <energy>
    <i name="e_fr_energy">     -9.79393943 </i>
    <i name="e_wo_entrp">     -9.79386550 </i>
    <i name="e_0_energy">     -9.79392095 </i>
   </energy>
  </scstep>
  <scstep>
   <time name="dav">    0.50    0.50</time>
   <time name="total">    0.51    0.52</time>
   <energy>
    <i name="alphaZ">      4.73398309 </i>
    <i name="ewald">   -274.67768345 </i>
    <i name="hartreedc">     -0.77775547 </i>
    <i name="XCdc">    -17.40055073 </i>
    <i name="pawpsdc">    628.50530572 </i>
    <i name="pawaedc">   -593.36007254 </i>
    <i name="eentropy">     -0.00007738 </i>
    <i name="bandstr">     37.05147696 </i>
    <i name="atom">    206.13149246 </i>
    <i name="e_fr_energy">     -9.79388135 </i>
    <i name="e_wo_entrp">     -9.79380397 </i>
    <i name="e_0_energy">     -9.79386200 </i>
   </energy>
  </scstep>
  <structure>
   <crystal>
    <varray name="basis" >
     <v>       3.05254867       0.00000000       0.00000000 </v>
     <v>       0.00000000       3.05254867       0.00000000 </v>
     <v>       0.00000000       0.00000000       3.05254867 </v>
    </varray>
    <i name="volume">     28.44381160 </i>
    <varray name="rec_basis" >
     <v>       0.32759510       0.00000000       0.00000000 </v>
     <v>       0.00000000       0.32759510       0.00000000 </v>
     <v>       0.00000000       0.00000000       0.32759510 </v>
    </varray>
   </crystal>
   <varray name="positions" >
    <v>       0.00000000       0.00000000       0.00000000 </v>
    <v>       0.50000000       0.50000000       0.50000000 </v>
   </varray>
  </structure>
  <varray name="forces" >
   <v>       0.00000000       0.00000000       0.00000000 </v>
   <v>       0.00000000       0.00000000       0.00000000 </v>
  </varray>
  <varray name="stress" >
   <v>      26.81331643       0.00000000       0.00000000 </v>
   <v>       0.00000000      26.81331643       0.00000000 </v>
   <v>       0.00000000       0.00000000      26.81331643 </v>
  </varray>
  <energy>
   <i name="e_fr_energy">     -9.79388135 </i>
   <i name="e_wo_entrp">     -9.79386200 </i>
   <i name="e_0_energy">     -0.00007738 </i>
  </energy>
  <time name="totalsc">    4.43    4.62</time>
  <eigenvalues>
   <array>
    <dimension dim="1">band</dimension>
    <dimension dim="2">kpoint</dimension>
    <dimension dim="3">spin</dimension>
    <field>eigene</field>
    <field>occ</field>
    <set>
     <set comment="spin 1">
      <set comment="kpoint 1">
       <r>   -4.1579    1.0000 </r>
       <r>    9.4577    1.0000 </r>
       <r>    9.5307    1.0000 </r>
       <r>    9.5307    1.0000 </r>
       <r>   12.0963    0.0000 </r>
       <r>   12.8730    0.0000 </r>
       <r>   12.8730    0.0000 </r>
       <r>   21.2106    0.0000 </r>
      </set>
      <set comment="kpoint 2">
       <r>   -4.0360    1.0000 </r>
       <r>    8.1266    1.0000 </r>
       <r>    9.5965    1.0000 </r>
       <r>    9.6413    1.0000 </r>
       <r>   12.3994    0.0000 </r>
       <r>   12.9950    0.0000 </r>
       <r>   14.2535    0.0000 </r>
       <r>   20.2608    0.0000 </r>
      </set>
      <set comment="kpoint 3">
       <r>   -3.7924    1.0000 </r>
       <r>    6.5987    1.0000 </r>
       <r>    9.8169    1.0000 </r>
       <r>    9.8623    1.0000 </r>
       <r>   12.6527    0.0000 </r>
       <r>   13.2392    0.0000 </r>
       <r>   16.1403    0.0000 </r>
       <r>   19.0339    0.0000 </r>
      </set>
      <set comment="kpoint 4">
       <r>   -3.4275    1.0000 </r>
       <r>    5.1200    1.0000 </r>
       <r>   10.1476    1.0516 </r>
       <r>   10.1936    0.9347 </r>
       <r>   12.9948    0.0000 </r>
       <r>   13.6053    0.0000 </r>
       <r>   17.7885    0.0000 </r>
       <r>   17.9193    0.0000 </r>
      </set>
      <set comment="kpoint 5">
       <r>   -2.9419    1.0000 </r>
       <r>    3.7291    1.0000 </r>
       <r>   10.5876    0.0000 </r>
       <r>   10.6348    0.0000 </r>
       <r>   13.4390    0.0000 </r>
       <r>   14.0932    0.0000 </r>
       <r>   16.5812    0.0000 </r>
       <r>   16.6843    0.0000 </r>
      </set>
      <set comment="kpoint 6">
       <r>   -2.3366    1.0000 </r>
       <r>    2.4395    1.0000 </r>
       <r>   11.1363    0.0000 </r>
       <r>   11.1853    0.0000 </r>
       <r>   13.9848    0.0000 </r>
       <r>   14.7028    0.0000 </r>
       <r>   15.4402    0.0000 </r>
       <r>   15.5250    0.0000 </r>
      </set>
      <set comment="kpoint 7">
       <r>   -1.6125    1.0000 </r>
       <r>    1.2573    1.0000 </r>
       <r>   11.7923    0.0000 </r>
       <r>   11.8442    0.0000 </r>
       <r>   14.3828    0.0000 </r>
       <r>   14.4547    0.0000 </r>
       <r>   14.6278    0.0000 </r>
       <r>   15.4331    0.0000 </r>
      </set>
      <set comment="kpoint 8">
       <r>   -0.7711    1.0000 </r>
       <r>    0.1862    1.0000 </r>
       <r>   12.5540    0.0000 </r>
       <r>   12.6104    0.0000 </r>
       <r>   13.4187    0.0000 </r>
       <r>   13.4817    0.0000 </r>
       <r>   15.3619    0.0000 </r>
       <r>   16.1786    0.0000 </r>
      </set>
      <set comment="kpoint 9">
       <r>   -3.9141    1.0000 </r>
       <r>    8.1721    1.0000 </r>
       <r>    8.3132    1.0000 </r>
       <r>    9.7311    1.0000 </r>
       <r>   12.7506    0.0000 </r>
       <r>   14.1473    0.0000 </r>
       <r>   14.5478    0.0000 </r>
       <r>   19.2310    0.0000 </r>
      </set>
      <set comment="kpoint 10">
       <r>   -3.6707    1.0000 </r>
       <r>    6.7120    1.0000 </r>
       <r>    8.4734    1.0000 </r>
       <r>    9.9518    0.9996 </r>
       <r>   13.0060    0.0000 </r>
       <r>   14.5437    0.0000 </r>
       <r>   16.2698    0.0000 </r>
       <r>   17.9601    0.0000 </r>
      </set>
      <set comment="kpoint 11">
       <r>   -3.3060    1.0000 </r>
       <r>    5.2356    1.0000 </r>
       <r>    8.8117    1.0000 </r>
       <r>   10.2827    0.1264 </r>
       <r>   13.3556    0.0000 </r>
       <r>   14.9001    0.0000 </r>
       <r>   16.6662    0.0000 </r>
       <r>   17.9353    0.0000 </r>
      </set>
      <set comment="kpoint 12">
       <r>   -2.8207    1.0000 </r>
       <r>    3.8460    1.0000 </r>
       <r>    9.2630    1.0000 </r>
       <r>   10.7233    0.0000 </r>
       <r>   13.8117    0.0000 </r>
       <r>   15.3631    0.0000 </r>
       <r>   15.4174    0.0000 </r>
       <r>   16.7330    0.0000 </r>
      </set>
      <set comment="kpoint 13">
       <r>   -2.2158    1.0000 </r>
       <r>    2.5574    1.0000 </r>
       <r>    9.8259    1.0000 </r>
       <r>   11.2728    0.0000 </r>
       <r>   14.2426    0.0000 </r>
       <r>   14.3736    0.0000 </r>
       <r>   15.5897    0.0000 </r>
       <r>   15.9377    0.0000 </r>
      </set>
      <set comment="kpoint 14">
       <r>   -1.4922    1.0000 </r>
       <r>    1.3759    1.0000 </r>
       <r>   10.4988    0.0017 </r>
       <r>   11.9301    0.0000 </r>
       <r>   13.1563    0.0000 </r>
       <r>   14.5287    0.0000 </r>
       <r>   15.0365    0.0000 </r>
       <r>   16.6238    0.0000 </r>
      </set>
      <set comment="kpoint 15">
       <r>   -0.6512    1.0000 </r>
       <r>    0.3055    1.0000 </r>
       <r>   11.2800    0.0000 </r>
       <r>   12.1670    0.0000 </r>
       <r>   12.6938    0.0000 </r>
       <r>   13.5612    0.0000 </r>
       <r>   15.7935    0.0000 </r>
       <r>   16.6342    0.0000 </r>
      </set>
      <set comment="kpoint 16">
       <r>   -3.4275    1.0000 </r>
       <r>    6.8561    1.0000 </r>
       <r>    7.0361    1.0000 </r>
       <r>   10.1724    1.0223 </r>
       <r>   13.2619    0.0000 </r>
       <r>   16.1823    0.0000 </r>
       <r>   16.6276    0.0000 </r>
       <r>   16.7364    0.0000 </r>
      </set>
      <set comment="kpoint 17">
       <r>   -3.0633    1.0000 </r>
       <r>    5.4652    1.0000 </r>
       <r>    7.2961    1.0000 </r>
       <r>   10.5030    0.0015 </r>
       <r>   13.6128    0.0000 </r>
       <r>   15.2914    0.0000 </r>
       <r>   16.7324    0.0000 </r>
       <r>   18.0057    0.0000 </r>
      </set>
      <set comment="kpoint 18">
       <r>   -2.5786    1.0000 </r>
       <r>    4.0793    1.0000 </r>
       <r>    7.7524    1.0000 </r>
       <r>   10.9432    0.0000 </r>
       <r>   14.0114    0.0000 </r>
       <r>   14.0714    0.0000 </r>
       <r>   16.8963    0.0000 </r>
       <r>   17.1920    0.0000 </r>
      </set>
      <set comment="kpoint 19">
       <r>   -1.9744    1.0000 </r>
       <r>    2.7927    1.0000 </r>
       <r>    8.3232    1.0000 </r>
       <r>   11.4921    0.0000 </r>
       <r>   12.8122    0.0000 </r>
       <r>   14.6368    0.0000 </r>
       <r>   15.7840    0.0000 </r>
       <r>   17.7429    0.0000 </r>
      </set>
      <set comment="kpoint 20">
       <r>   -1.2516    1.0000 </r>
       <r>    1.6129    1.0000 </r>
       <r>    9.0061    1.0000 </r>
       <r>   11.7061    0.0000 </r>
       <r>   12.1484    0.0000 </r>
       <r>   14.7358    0.0000 </r>
       <r>   15.3051    0.0000 </r>
       <r>   17.8329    0.0000 </r>
      </set>
      <set comment="kpoint 21">
       <r>   -0.4117    1.0000 </r>
       <r>    0.5438    1.0000 </r>
       <r>    9.7992    1.0000 </r>
       <r>   10.7002    0.0000 </r>
       <r>   12.9101    0.0000 </r>
       <r>   13.7744    0.0000 </r>
       <r>   16.0694    0.0000 </r>
       <r>   16.9186    0.0000 </r>
      </set>
      <set comment="kpoint 22">
       <r>   -2.6997    1.0000 </r>
       <r>    5.7134    1.0000 </r>
       <r>    5.9241    1.0000 </r>
       <r>   10.8333    0.0000 </r>
       <r>   13.9246    0.0000 </r>
       <r>   13.9631    0.0000 </r>
       <r>   17.8362    0.0000 </r>
       <r>   18.4155    0.0000 </r>
      </set>
      <set comment="kpoint 23">
       <r>   -2.2159    1.0000 </r>
       <r>    4.4267    1.0000 </r>
       <r>    6.2890    1.0000 </r>
       <r>   11.2728    0.0000 </r>
       <r>   12.6218    0.0000 </r>
       <r>   14.4200    0.0000 </r>
       <r>   17.0763    0.0000 </r>
       <r>   19.1014    0.0000 </r>
      </set>
      <set comment="kpoint 24">
       <r>   -1.6128    1.0000 </r>
       <r>    3.1447    1.0000 </r>
       <r>    6.8635    1.0000 </r>
       <r>   11.4046    0.0000 </r>
       <r>   11.8205    0.0000 </r>
       <r>   14.9828    0.0000 </r>
       <r>   16.0575    0.0000 </r>
       <r>   18.9063    0.0000 </r>
      </set>
      <set comment="kpoint 25">
       <r>   -0.8913    1.0000 </r>
       <r>    1.9676    1.0000 </r>
       <r>    7.5531    1.0000 </r>
       <r>   10.2839    0.1183 </r>
       <r>   12.4749    0.0000 </r>
       <r>   15.0399    0.0000 </r>
       <r>   15.6471    0.0000 </r>
       <r>   18.1165    0.0000 </r>
      </set>
      <set comment="kpoint 26">
       <r>   -0.0529    1.0000 </r>
       <r>    0.9008    1.0000 </r>
       <r>    8.3546    1.0000 </r>
       <r>    9.2659    1.0000 </r>
       <r>   13.2334    0.0000 </r>
       <r>   14.0914    0.0000 </r>
       <r>   16.4047    0.0000 </r>
       <r>   17.2399    0.0000 </r>
      </set>
      <set comment="kpoint 27">
       <r>   -1.7333    1.0000 </r>
       <r>    4.7811    1.0000 </r>
       <r>    5.0203    1.0000 </r>
       <r>   11.3015    0.0000 </r>
       <r>   11.7111    0.0000 </r>
       <r>   14.8731    0.0000 </r>
       <r>   17.0174    0.0000 </r>
       <r>   18.6054    0.0000 </r>
      </set>
      <set comment="kpoint 28">
       <r>   -1.1316    1.0000 </r>
       <r>    3.6105    1.0000 </r>
       <r>    5.4915    1.0000 </r>
       <r>   10.0705    0.9992 </r>
       <r>   12.2569    0.0000 </r>
       <r>   15.4299    0.0000 </r>
       <r>   16.3508    0.0000 </r>
       <r>   18.5353    0.0000 </r>
      </set>
      <set comment="kpoint 29">
       <r>   -0.4120    1.0000 </r>
       <r>    2.4390    1.0000 </r>
       <r>    6.1841    1.0000 </r>
       <r>    8.9383    1.0000 </r>
       <r>   12.9080    0.0000 </r>
       <r>   15.4245    0.0000 </r>
       <r>   16.0843    0.0000 </r>
       <r>   18.3337    0.0000 </r>
      </set>
      <set comment="kpoint 30">
       <r>    0.4243    1.0000 </r>
       <r>    1.3754    1.0000 </r>
       <r>    6.9918    1.0000 </r>
       <r>    7.9109    1.0000 </r>
       <r>   13.6603    0.0000 </r>
       <r>   14.5059    0.0000 </r>
       <r>   16.8234    0.0000 </r>
       <r>   17.6155    0.0000 </r>
      </set>
      <set comment="kpoint 31">
       <r>   -0.5318    1.0000 </r>
       <r>    4.0734    1.0000 </r>
       <r>    4.3374    1.0000 </r>
       <r>    8.8282    1.0000 </r>
       <r>   12.7994    0.0000 </r>
       <r>   15.9760    0.0000 </r>
       <r>   16.4037    0.0000 </r>
       <r>   17.9773    0.0000 </r>
      </set>
      <set comment="kpoint 32">
       <r>    0.1856    1.0000 </r>
       <r>    3.0237    1.0000 </r>
       <r>    4.9167    1.0000 </r>
       <r>    7.6870    1.0000 </r>
       <r>   13.4444    0.0000 </r>
       <r>   15.8311    0.0000 </r>
       <r>   16.6111    0.0000 </r>
       <r>   18.0243    0.0000 </r>
      </set>
      <set comment="kpoint 33">
       <r>    1.0191    1.0000 </r>
       <r>    1.9665    1.0000 </r>
       <r>    5.7269    1.0000 </r>
       <r>    6.6519    1.0000 </r>
       <r>   14.1845    0.0000 </r>
       <r>   15.0011    0.0000 </r>
       <r>   17.3064    0.0000 </r>
       <r>   17.9375    0.0000 </r>
      </set>
      <set comment="kpoint 34">
       <r>    0.9001    1.0000 </r>
       <r>    3.5980    1.0000 </r>
       <r>    3.8805    1.0000 </r>
       <r>    6.5381    1.0000 </r>
       <r>   14.0773    0.0000 </r>
       <r>   15.9948    0.0000 </r>
       <r>   17.2021    0.0000 </r>
       <r>   17.5481    0.0000 </r>
      </set>
      <set comment="kpoint 35">
       <r>    1.7297    1.0000 </r>
       <r>    2.6702    1.0000 </r>
       <r>    4.5702    1.0000 </r>
       <r>    5.4973    1.0000 </r>
       <r>   14.7890    0.0000 </r>
       <r>   15.5187    0.0000 </r>
       <r>   17.7113    0.0000 </r>
       <r>   17.7360    0.0000 </r>
      </set>
      <set comment="kpoint 36">
       <r>    2.5521    1.0000 </r>
       <r>    3.3594    1.0000 </r>
       <r>    3.6516    1.0000 </r>
       <r>    4.4544    1.0000 </r>
       <r>   15.4145    0.0000 </r>
       <r>   15.7904    0.0000 </r>
       <r>   17.3307    0.0000 </r>
       <r>   17.6062    0.0000 </r>
      </set>
      <set comment="kpoint 37">
       <r>   -3.7924    1.0000 </r>
       <r>    8.2217    1.0000 </r>
       <r>    8.4267    1.0000 </r>
       <r>    8.4267    1.0000 </r>
       <r>   13.9023    0.0000 </r>
       <r>   14.6667    0.0000 </r>
       <r>   14.6667    0.0000 </r>
       <r>   18.8256    0.0000 </r>
      </set>
      <set comment="kpoint 38">
       <r>   -3.5490    1.0000 </r>
       <r>    6.8252    1.0000 </r>
       <r>    8.5245    1.0000 </r>
       <r>    8.6535    1.0000 </r>
       <r>   14.2969    0.0000 </r>
       <r>   14.9041    0.0000 </r>
       <r>   16.3979    0.0000 </r>
       <r>   17.7851    0.0000 </r>
      </set>
      <set comment="kpoint 39">
       <r>   -3.1846    1.0000 </r>
       <r>    5.3512    1.0000 </r>
       <r>    8.8608    1.0000 </r>
       <r>    8.9934    1.0000 </r>
       <r>   14.6428    0.0000 </r>
       <r>   15.2600    0.0000 </r>
       <r>   16.5783    0.0000 </r>
       <r>   16.9853    0.0000 </r>
      </set>
      <set comment="kpoint 40">
       <r>   -2.6996    1.0000 </r>
       <r>    3.9629    1.0000 </r>
       <r>    9.3105    1.0000 </r>
       <r>    9.4463    1.0000 </r>
       <r>   15.0742    0.0000 </r>
       <r>   15.3767    0.0000 </r>
       <r>   15.6911    0.0000 </r>
       <r>   15.7340    0.0000 </r>
      </set>
      <set comment="kpoint 41">
       <r>   -2.0950    1.0000 </r>
       <r>    2.6752    1.0000 </r>
       <r>    9.8707    1.0000 </r>
       <r>   10.0117    0.9966 </r>
       <r>   14.2319    0.0000 </r>
       <r>   14.4855    0.0000 </r>
       <r>   15.5988    0.0000 </r>
       <r>   16.3254    0.0000 </r>
      </set>
      <set comment="kpoint 42">
       <r>   -1.3719    1.0000 </r>
       <r>    1.4945    1.0000 </r>
       <r>   10.5393    0.0004 </r>
       <r>   10.6887    0.0000 </r>
       <r>   13.1660    0.0000 </r>
       <r>   13.3780    0.0000 </r>
       <r>   16.2129    0.0000 </r>
       <r>   17.0331    0.0000 </r>
      </set>
      <set comment="kpoint 43">
       <r>   -0.5314    1.0000 </r>
       <r>    0.4247    1.0000 </r>
       <r>   11.3138    0.0000 </r>
       <r>   11.4767    0.0000 </r>
       <r>   12.1910    0.0000 </r>
       <r>   12.3739    0.0000 </r>
       <r>   16.9072    0.0000 </r>
       <r>   17.6655    0.0000 </r>
      </set>
      <set comment="kpoint 44">
       <r>   -3.3060    1.0000 </r>
       <r>    6.9682    1.0000 </r>
       <r>    7.1507    1.0000 </r>
       <r>    8.8188    1.0000 </r>
       <r>   14.7510    0.0000 </r>
       <r>   16.3444    0.0000 </r>
       <r>   16.6809    0.0000 </r>
       <r>   16.8531    0.0000 </r>
      </set>
      <set comment="kpoint 45">
       <r>   -2.9420    1.0000 </r>
       <r>    5.5807    1.0000 </r>
       <r>    7.4093    1.0000 </r>
       <r>    9.1568    1.0000 </r>
       <r>   15.1035    0.0000 </r>
       <r>   15.3787    0.0000 </r>
       <r>   16.8766    0.0000 </r>
       <r>   16.9773    0.0000 </r>
      </set>
      <set comment="kpoint 46">
       <r>   -2.4576    1.0000 </r>
       <r>    4.1961    1.0000 </r>
       <r>    7.8653    1.0000 </r>
       <r>    9.6078    1.0000 </r>
       <r>   14.1107    0.0000 </r>
       <r>   15.5446    0.0000 </r>
       <r>   15.7533    0.0000 </r>
       <r>   17.3369    0.0000 </r>
      </set>
      <set comment="kpoint 47">
       <r>   -1.8537    1.0000 </r>
       <r>    2.9104    1.0000 </r>
       <r>    8.4357    1.0000 </r>
       <r>   10.1702    1.0278 </r>
       <r>   12.9172    0.0000 </r>
       <r>   14.5835    0.0000 </r>
       <r>   16.0811    0.0000 </r>
       <r>   17.8917    0.0000 </r>
      </set>
      <set comment="kpoint 48">
       <r>   -1.1314    1.0000 </r>
       <r>    1.7313    1.0000 </r>
       <r>    9.1181    1.0000 </r>
       <r>   10.8426    0.0000 </r>
       <r>   11.8142    0.0000 </r>
       <r>   13.4986    0.0000 </r>
       <r>   16.7063    0.0000 </r>
       <r>   18.5452    0.0000 </r>
      </set>
      <set comment="kpoint 49">
       <r>   -0.2920    1.0000 </r>
       <r>    0.6630    1.0000 </r>
       <r>    9.9104    0.9999 </r>
       <r>   10.8102    0.0000 </r>
       <r>   11.6233    0.0000 </r>
       <r>   12.5099    0.0000 </r>
       <r>   17.4034    0.0000 </r>
       <r>   18.1331    0.0000 </r>
      </set>
      <set comment="kpoint 50">
       <r>   -2.5787    1.0000 </r>
       <r>    5.8291    1.0000 </r>
       <r>    6.0393    1.0000 </r>
       <r>    9.4943    1.0000 </r>
       <r>   14.0274    0.0000 </r>
       <r>   15.4560    0.0000 </r>
       <r>   16.9409    0.0000 </r>
       <r>   17.8038    0.0000 </r>
      </set>
      <set comment="kpoint 51">
       <r>   -2.0951    1.0000 </r>
       <r>    4.5433    1.0000 </r>
       <r>    6.4041    1.0000 </r>
       <r>    9.9444    0.9997 </r>
       <r>   12.7299    0.0000 </r>
       <r>   15.8956    0.0000 </r>
       <r>   16.0134    0.0000 </r>
       <r>   17.8629    0.0000 </r>
      </set>
      <set comment="kpoint 52">
       <r>   -1.4923    1.0000 </r>
       <r>    3.2623    1.0000 </r>
       <r>    6.9784    1.0000 </r>
       <r>   10.5056    0.0014 </r>
       <r>   11.5153    0.0000 </r>
       <r>   14.8882    0.0000 </r>
       <r>   16.4278    0.0000 </r>
       <r>   18.2250    0.0000 </r>
      </set>
      <set comment="kpoint 53">
       <r>   -0.7713    1.0000 </r>
       <r>    2.0859    1.0000 </r>
       <r>    7.6675    1.0000 </r>
       <r>   10.3961   -0.0087 </r>
       <r>   11.1763    0.0000 </r>
       <r>   13.8184    0.0000 </r>
       <r>   17.0411    0.0000 </r>
       <r>   18.4925    0.0000 </r>
      </set>
      <set comment="kpoint 54">
       <r>    0.0666    1.0000 </r>
       <r>    1.0197    1.0000 </r>
       <r>    8.4686    1.0000 </r>
       <r>    9.3791    1.0000 </r>
       <r>   11.9545    0.0000 </r>
       <r>   12.8369    0.0000 </r>
       <r>   17.7008    0.0000 </r>
       <r>   18.2922    0.0000 </r>
      </set>
      <set comment="kpoint 55">
       <r>   -1.6128    1.0000 </r>
       <r>    4.8984    1.0000 </r>
       <r>    5.1357    1.0000 </r>
       <r>   10.3933   -0.0106 </r>
       <r>   11.4127    0.0000 </r>
       <r>   16.0975    0.0000 </r>
       <r>   16.3272    0.0000 </r>
       <r>   16.9799    0.0000 </r>
      </set>
      <set comment="kpoint 56">
       <r>   -1.0115    1.0000 </r>
       <r>    3.7279    1.0000 </r>
       <r>    5.6075    1.0000 </r>
       <r>   10.1833    0.9857 </r>
       <r>   10.9529    0.0000 </r>
       <r>   15.2675    0.0000 </r>
       <r>   16.8416    0.0000 </r>
       <r>   17.1451    0.0000 </r>
      </set>
      <set comment="kpoint 57">
       <r>   -0.2922    1.0000 </r>
       <r>    2.5572    1.0000 </r>
       <r>    6.2998    1.0000 </r>
       <r>    9.0522    1.0000 </r>
       <r>   11.6212    0.0000 </r>
       <r>   14.2391    0.0000 </r>
       <r>   17.4096    0.0000 </r>
       <r>   17.6290    0.0000 </r>
      </set>
      <set comment="kpoint 58">
       <r>    0.5436    1.0000 </r>
       <r>    1.4942    1.0000 </r>
       <r>    7.1070    1.0000 </r>
       <r>    8.0255    1.0000 </r>
       <r>   12.3955    0.0000 </r>
       <r>   13.2713    0.0000 </r>
       <r>   17.9202    0.0000 </r>
       <r>   18.0242    0.0000 </r>
      </set>
      <set comment="kpoint 59">
       <r>   -0.4119    1.0000 </r>
       <r>    4.1918    1.0000 </r>
       <r>    4.4530    1.0000 </r>
       <r>    8.9423    1.0000 </r>
       <r>   11.5099    0.0000 </r>
       <r>   15.4681    0.0000 </r>
       <r>   16.3412    0.0000 </r>
       <r>   17.3095    0.0000 </r>
      </set>
      <set comment="kpoint 60">
       <r>    0.3051    1.0000 </r>
       <r>    3.1416    1.0000 </r>
       <r>    5.0332    1.0000 </r>
       <r>    7.8019    1.0000 </r>
       <r>   12.1744    0.0000 </r>
       <r>   14.7331    0.0000 </r>
       <r>   16.6213    0.0000 </r>
       <r>   17.7267    0.0000 </r>
      </set>
      <set comment="kpoint 61">
       <r>    1.1381    1.0000 </r>
       <r>    2.0850    1.0000 </r>
       <r>    5.8430    1.0000 </r>
       <r>    6.7675    1.0000 </r>
       <r>   12.9423    0.0000 </r>
       <r>   13.8049    0.0000 </r>
       <r>   17.2228    0.0000 </r>
       <r>   17.7338    0.0000 </r>
      </set>
      <set comment="kpoint 62">
       <r>    1.0192    1.0000 </r>
       <r>    3.7171    1.0000 </r>
       <r>    3.9961    1.0000 </r>
       <r>    6.6539    1.0000 </r>
       <r>   12.8325    0.0000 </r>
       <r>   15.0485    0.0000 </r>
       <r>   15.9080    0.0000 </r>
       <r>   17.6359    0.0000 </r>
      </set>
      <set comment="kpoint 63">
       <r>    1.8484    1.0000 </r>
       <r>    2.7885    1.0000 </r>
       <r>    4.6869    1.0000 </r>
       <r>    5.6136    1.0000 </r>
       <r>   13.5873    0.0000 </r>
       <r>   14.4115    0.0000 </r>
       <r>   16.3032    0.0000 </r>
       <r>   17.0175    0.0000 </r>
      </set>
      <set comment="kpoint 64">
       <r>    2.6705    1.0000 </r>
       <r>    3.4788    1.0000 </r>
       <r>    3.7673    1.0000 </r>
       <r>    4.5712    1.0000 </r>
       <r>   14.3041    0.0000 </r>
       <r>   14.8386    0.0000 </r>
       <r>   15.6894    0.0000 </r>
       <r>   16.1967    0.0000 </r>
      </set>
      <set comment="kpoint 65">
       <r>   -3.0633    1.0000 </r>
       <r>    7.1186    1.0000 </r>
       <r>    7.3799    1.0000 </r>
       <r>    7.3799    1.0000 </r>
       <r>   16.1102    0.0000 </r>
       <r>   16.4402    0.0000 </r>
       <r>   17.0861    0.0000 </r>
       <r>   17.0861    0.0000 </r>
      </set>
      <set comment="kpoint 66">
       <r>   -2.6997    1.0000 </r>
       <r>    5.8101    1.0000 </r>
       <r>    7.5609    1.0000 </r>
       <r>    7.7236    1.0000 </r>
       <r>   15.3612    0.0000 </r>
       <r>   15.8584    0.0000 </r>
       <r>   16.6066    0.0000 </r>
       <r>   17.3952    0.0000 </r>
      </set>
      <set comment="kpoint 67">
       <r>   -2.2159    1.0000 </r>
       <r>    4.4291    1.0000 </r>
       <r>    8.0143    1.0000 </r>
       <r>    8.1815    1.0000 </r>
       <r>   14.1597    0.0000 </r>
       <r>   14.5277    0.0000 </r>
       <r>   17.0285    0.0000 </r>
       <r>   17.7451    0.0000 </r>
      </set>
      <set comment="kpoint 68">
       <r>   -1.6127    1.0000 </r>
       <r>    3.1455    1.0000 </r>
       <r>    8.5825    1.0000 </r>
       <r>    8.7534    1.0000 </r>
       <r>   13.0032    0.0000 </r>
       <r>   13.2954    0.0000 </r>
       <r>   17.5016    0.0000 </r>
       <r>   18.1696    0.0000 </r>
      </set>
      <set comment="kpoint 69">
       <r>   -0.8912    1.0000 </r>
       <r>    1.9680    1.0000 </r>
       <r>    9.2609    1.0000 </r>
       <r>    9.4388    1.0000 </r>
       <r>   11.9242    0.0000 </r>
       <r>   12.1674    0.0000 </r>
       <r>   18.0111    0.0000 </r>
       <r>   18.5683    0.0000 </r>
      </set>
      <set comment="kpoint 70">
       <r>   -0.0528    1.0000 </r>
       <r>    0.9010    1.0000 </r>
       <r>   10.0467    0.9952 </r>
       <r>   10.2371    0.5616 </r>
       <r>   10.9361    0.0000 </r>
       <r>   11.1471    0.0000 </r>
       <r>   18.4829    0.0000 </r>
       <r>   18.7279    0.0000 </r>
      </set>
      <set comment="kpoint 71">
       <r>   -2.3368    1.0000 </r>
       <r>    6.0577    1.0000 </r>
       <r>    6.2696    1.0000 </r>
       <r>    7.9899    1.0000 </r>
       <r>   14.2169    0.0000 </r>
       <r>   15.7417    0.0000 </r>
       <r>   16.2707    0.0000 </r>
       <r>   17.1758    0.0000 </r>
      </set>
      <set comment="kpoint 72">
       <r>   -1.8538    1.0000 </r>
       <r>    4.7761    1.0000 </r>
       <r>    6.6330    1.0000 </r>
       <r>    8.4452    1.0000 </r>
       <r>   12.9399    0.0000 </r>
       <r>   14.6703    0.0000 </r>
       <r>   16.4548    0.0000 </r>
       <r>   17.5935    0.0000 </r>
      </set>
      <set comment="kpoint 73">
       <r>   -1.2517    1.0000 </r>
       <r>    3.4971    1.0000 </r>
       <r>    7.2067    1.0000 </r>
       <r>    9.0144    1.0000 </r>
       <r>   11.7332    0.0000 </r>
       <r>   13.4877    0.0000 </r>
       <r>   16.9355    0.0000 </r>
       <r>   18.0298    0.0000 </r>
      </set>
      <set comment="kpoint 74">
       <r>   -0.5315    1.0000 </r>
       <r>    2.3223    1.0000 </r>
       <r>    7.8950    1.0000 </r>
       <r>    9.6954    1.0000 </r>
       <r>   10.6181    0.0000 </r>
       <r>   12.3872    0.0000 </r>
       <r>   17.4967    0.0000 </r>
       <r>   18.4003    0.0000 </r>
      </set>
      <set comment="kpoint 75">
       <r>    0.3054    1.0000 </r>
       <r>    1.2574    1.0000 </r>
       <r>    8.6949    1.0000 </r>
       <r>    9.6037    1.0000 </r>
       <r>   10.4863    0.0025 </r>
       <r>   11.3847    0.0000 </r>
       <r>   18.0634    0.0000 </r>
       <r>   18.4521    0.0000 </r>
      </set>
      <set comment="kpoint 76">
       <r>   -1.3720    1.0000 </r>
       <r>    5.1322    1.0000 </r>
       <r>    5.3666    1.0000 </r>
       <r>    8.8994    1.0000 </r>
       <r>   11.6333    0.0000 </r>
       <r>   14.8548    0.0000 </r>
       <r>   15.4244    0.0000 </r>
       <r>   17.9710    0.0000 </r>
      </set>
      <set comment="kpoint 77">
       <r>   -0.7713    1.0000 </r>
       <r>    3.9625    1.0000 </r>
       <r>    5.8390    1.0000 </r>
       <r>    9.4671    1.0000 </r>
       <r>   10.4080   -0.0020 </r>
       <r>   13.9007    0.0000 </r>
       <r>   15.7156    0.0000 </r>
       <r>   18.2699    0.0000 </r>
      </set>
      <set comment="kpoint 78">
       <r>   -0.0529    1.0000 </r>
       <r>    2.7932    1.0000 </r>
       <r>    6.5306    1.0000 </r>
       <r>    9.2794    1.0000 </r>
       <r>   10.1460    1.0516 </r>
       <r>   12.8220    0.0000 </r>
       <r>   16.3147    0.0000 </r>
       <r>   18.2222    0.0000 </r>
      </set>
      <set comment="kpoint 79">
       <r>    0.7820    1.0000 </r>
       <r>    1.7315    1.0000 </r>
       <r>    7.3370    1.0000 </r>
       <r>    8.2543    1.0000 </r>
       <r>   10.9339    0.0000 </r>
       <r>   11.8278    0.0000 </r>
       <r>   16.9981    0.0000 </r>
       <r>   17.6956    0.0000 </r>
      </set>
      <set comment="kpoint 80">
       <r>   -0.1725    1.0000 </r>
       <r>    4.4281    1.0000 </r>
       <r>    4.6842    1.0000 </r>
       <r>    9.1700    1.0000 </r>
       <r>   10.0328    0.9952 </r>
       <r>   14.2078    0.0000 </r>
       <r>   14.7739    0.0000 </r>
       <r>   18.1388    0.0000 </r>
      </set>
      <set comment="kpoint 81">
       <r>    0.5438    1.0000 </r>
       <r>    3.3773    1.0000 </r>
       <r>    5.2658    1.0000 </r>
       <r>    8.0314    1.0000 </r>
       <r>   10.7089    0.0000 </r>
       <r>   13.3536    0.0000 </r>
       <r>   15.1806    0.0000 </r>
       <r>   17.5052    0.0000 </r>
      </set>
      <set comment="kpoint 82">
       <r>    1.3759    1.0000 </r>
       <r>    2.3218    1.0000 </r>
       <r>    6.0749    1.0000 </r>
       <r>    6.9984    1.0000 </r>
       <r>   11.4927    0.0000 </r>
       <r>   12.3791    0.0000 </r>
       <r>   15.8949    0.0000 </r>
       <r>   16.6931    0.0000 </r>
      </set>
      <set comment="kpoint 83">
       <r>    1.2572    1.0000 </r>
       <r>    3.9549    1.0000 </r>
       <r>    4.2275    1.0000 </r>
       <r>    6.8850    1.0000 </r>
       <r>   11.3809    0.0000 </r>
       <r>   13.7778    0.0000 </r>
       <r>   14.3345    0.0000 </r>
       <r>   16.5906    0.0000 </r>
      </set>
      <set comment="kpoint 84">
       <r>    2.0855    1.0000 </r>
       <r>    3.0248    1.0000 </r>
       <r>    4.9200    1.0000 </r>
       <r>    5.8459    1.0000 </r>
       <r>   12.1573    0.0000 </r>
       <r>   13.0248    0.0000 </r>
       <r>   14.8570    0.0000 </r>
       <r>   15.6835    0.0000 </r>
      </set>
      <set comment="kpoint 85">
       <r>    2.9070    1.0000 </r>
       <r>    3.7172    1.0000 </r>
       <r>    3.9987    1.0000 </r>
       <r>    4.8045    1.0000 </r>
       <r>   12.9150    0.0000 </r>
       <r>   13.5626    0.0000 </r>
       <r>   14.1133    0.0000 </r>
       <r>   14.7487    0.0000 </r>
      </set>
      <set comment="kpoint 86">
       <r>   -1.9744    1.0000 </r>
       <r>    6.3163    1.0000 </r>
       <r>    6.6150    1.0000 </r>
       <r>    6.6150    1.0000 </r>
       <r>   14.1779    0.0000 </r>
       <r>   14.8235    0.0000 </r>
       <r>   14.8235    0.0000 </r>
       <r>   18.3403    0.0000 </r>
      </set>
      <set comment="kpoint 87">
       <r>   -1.4923    1.0000 </r>
       <r>    5.1228    1.0000 </r>
       <r>    6.8922    1.0000 </r>
       <r>    7.0753    1.0000 </r>
       <r>   13.0933    0.0000 </r>
       <r>   13.4733    0.0000 </r>
       <r>   15.0899    0.0000 </r>
       <r>   18.7189    0.0000 </r>
      </set>
      <set comment="kpoint 88">
       <r>   -0.8913    1.0000 </r>
       <r>    3.8483    1.0000 </r>
       <r>    7.4629    1.0000 </r>
       <r>    7.6504    1.0000 </r>
       <r>   11.9319    0.0000 </r>
       <r>   12.2268    0.0000 </r>
       <r>   15.6025    0.0000 </r>
       <r>   18.7360    0.0000 </r>
      </set>
      <set comment="kpoint 89">
       <r>   -0.1723    1.0000 </r>
       <r>    2.6762    1.0000 </r>
       <r>    8.1485    1.0000 </r>
       <r>    8.3398    1.0000 </r>
       <r>   10.8417    0.0000 </r>
       <r>   11.0881    0.0000 </r>
       <r>   16.2216    0.0000 </r>
       <r>   18.3341    0.0000 </r>
      </set>
      <set comment="kpoint 90">
       <r>    0.6631    1.0000 </r>
       <r>    1.6133    1.0000 </r>
       <r>    8.9431    1.0000 </r>
       <r>    9.1431    1.0000 </r>
       <r>    9.8427    1.0000 </r>
       <r>   10.0596    0.9965 </r>
       <r>   16.9204    0.0000 </r>
       <r>   17.6579    0.0000 </r>
      </set>
      <set comment="kpoint 91">
       <r>   -1.0113    1.0000 </r>
       <r>    5.4789    1.0000 </r>
       <r>    5.7128    1.0000 </r>
       <r>    7.4493    1.0000 </r>
       <r>   11.9536    0.0000 </r>
       <r>   13.5717    0.0000 </r>
       <r>   13.9618    0.0000 </r>
       <r>   18.7764    0.0000 </r>
      </set>
      <set comment="kpoint 92">
       <r>   -0.4117    1.0000 </r>
       <r>    4.3133    1.0000 </r>
       <r>    6.1844    1.0000 </r>
       <r>    8.0213    1.0000 </r>
       <r>   10.7404    0.0000 </r>
       <r>   12.5280    0.0000 </r>
       <r>   14.3285    0.0000 </r>
       <r>   18.2151    0.0000 </r>
      </set>
      <set comment="kpoint 93">
       <r>    0.3055    1.0000 </r>
       <r>    3.1465    1.0000 </r>
       <r>    6.8750    1.0000 </r>
       <r>    8.7073    1.0000 </r>
       <r>    9.6170    1.0000 </r>
       <r>   11.4213    0.0000 </r>
       <r>   14.9642    0.0000 </r>
       <r>   17.3889    0.0000 </r>
      </set>
      <set comment="kpoint 94">
       <r>    1.1390    1.0000 </r>
       <r>    2.0868    1.0000 </r>
       <r>    7.6799    1.0000 </r>
       <r>    8.5950    1.0000 </r>
       <r>    9.5046    1.0000 </r>
       <r>   10.4105   -0.0010 </r>
       <r>   15.7026    0.0000 </r>
       <r>   16.5225    0.0000 </r>
      </set>
      <set comment="kpoint 95">
       <r>    0.1862    1.0000 </r>
       <r>    4.7809    1.0000 </r>
       <r>    5.0309    1.0000 </r>
       <r>    8.5916    1.0000 </r>
       <r>    9.5097    1.0000 </r>
       <r>   12.8996    0.0000 </r>
       <r>   13.3028    0.0000 </r>
       <r>   17.2962    0.0000 </r>
      </set>
      <set comment="kpoint 96">
       <r>    0.9013    1.0000 </r>
       <r>    3.7300    1.0000 </r>
       <r>    5.6139    1.0000 </r>
       <r>    8.3745    1.0000 </r>
       <r>    9.2752    1.0000 </r>
       <r>   11.9680    0.0000 </r>
       <r>   13.7839    0.0000 </r>
       <r>   16.3200    0.0000 </r>
      </set>
      <set comment="kpoint 97">
       <r>    1.7320    1.0000 </r>
       <r>    2.6763    1.0000 </r>
       <r>    6.4219    1.0000 </r>
       <r>    7.3437    1.0000 </r>
       <r>   10.0691    0.9987 </r>
       <r>   10.9695    0.0000 </r>
       <r>   14.5351    0.0000 </r>
       <r>   15.3875    0.0000 </r>
      </set>
      <set comment="kpoint 98">
       <r>    1.6136    1.0000 </r>
       <r>    4.3102    1.0000 </r>
       <r>    4.5744    1.0000 </r>
       <r>    7.2309    1.0000 </r>
       <r>    9.9556    0.9995 </r>
       <r>   12.4597    0.0000 </r>
       <r>   12.8588    0.0000 </r>
       <r>   15.2819    0.0000 </r>
      </set>
      <set comment="kpoint 99">
       <r>    2.4407    1.0000 </r>
       <r>    3.3785    1.0000 </r>
       <r>    5.2692    1.0000 </r>
       <r>    6.1938    1.0000 </r>
       <r>   10.7444    0.0000 </r>
       <r>   11.6335    0.0000 </r>
       <r>   13.4556    0.0000 </r>
       <r>   14.3194    0.0000 </r>
      </set>
      <set comment="kpoint 100">
       <r>    3.2611    1.0000 </r>
       <r>    4.0738    1.0000 </r>
       <r>    4.3458    1.0000 </r>
       <r>    5.1540    1.0000 </r>
       <r>   11.5219    0.0000 </r>
       <r>   12.2400    0.0000 </r>
       <r>   12.6356    0.0000 </r>
       <r>   13.3458    0.0000 </r>
      </set>
      <set comment="kpoint 101">
       <r>   -0.5314    1.0000 </r>
       <r>    5.8495    1.0000 </r>
       <r>    6.1743    1.0000 </r>
       <r>    6.1743    1.0000 </r>
       <r>   12.1083    0.0000 </r>
       <r>   12.6009    0.0000 </r>
       <r>   12.6009    0.0000 </r>
       <r>   18.1784    0.0000 </r>
      </set>
      <set comment="kpoint 102">
       <r>    0.0669    1.0000 </r>
       <r>    4.7777    1.0000 </r>
       <r>    6.5543    1.0000 </r>
       <r>    6.7510    1.0000 </r>
       <r>   11.0509    0.0000 </r>
       <r>   11.3465    0.0000 </r>
       <r>   13.0209    0.0000 </r>
       <r>   17.2177    0.0000 </r>
      </set>
      <set comment="kpoint 103">
       <r>    0.7825    1.0000 </r>
       <r>    3.6160    1.0000 </r>
       <r>    7.2413    1.0000 </r>
       <r>    7.4426    1.0000 </r>
       <r>    9.9563    0.9995 </r>
       <r>   10.2017    0.8830 </r>
       <r>   13.6709    0.0000 </r>
       <r>   16.2270    0.0000 </r>
      </set>
      <set comment="kpoint 104">
       <r>    1.6139    1.0000 </r>
       <r>    2.5593    1.0000 </r>
       <r>    8.0420    1.0000 </r>
       <r>    8.2487    1.0000 </r>
       <r>    8.9491    1.0000 </r>
       <r>    9.1687    1.0000 </r>
       <r>   14.4311    0.0000 </r>
       <r>   15.2881    0.0000 </r>
      </set>
      <set comment="kpoint 105">
       <r>    0.6635    1.0000 </r>
       <r>    5.2459    1.0000 </r>
       <r>    5.4931    1.0000 </r>
       <r>    7.2353    1.0000 </r>
       <r>    9.9551    0.9995 </r>
       <r>   11.6364    0.0000 </r>
       <r>   11.9356    0.0000 </r>
       <r>   16.1271    0.0000 </r>
      </set>
      <set comment="kpoint 106">
       <r>    1.3769    1.0000 </r>
       <r>    4.1987    1.0000 </r>
       <r>    6.0757    1.0000 </r>
       <r>    7.9231    1.0000 </r>
       <r>    8.8280    1.0000 </r>
       <r>   10.6484    0.0000 </r>
       <r>   12.4650    0.0000 </r>
       <r>   15.0788    0.0000 </r>
      </set>
      <set comment="kpoint 107">
       <r>    2.2058    1.0000 </r>
       <r>    3.1478    1.0000 </r>
       <r>    6.8819    1.0000 </r>
       <r>    7.8011    1.0000 </r>
       <r>    8.7241    1.0000 </r>
       <r>    9.6345    1.0000 </r>
       <r>   13.2340    0.0000 </r>
       <r>   14.1092    0.0000 </r>
      </set>
      <set comment="kpoint 108">
       <r>    2.0877    1.0000 </r>
       <r>    4.7814    1.0000 </r>
       <r>    5.0370    1.0000 </r>
       <r>    7.6902    1.0000 </r>
       <r>    8.6080    1.0000 </r>
       <r>   11.1818    0.0000 </r>
       <r>   11.4883    0.0000 </r>
       <r>   14.0014    0.0000 </r>
      </set>
      <set comment="kpoint 109">
       <r>    2.9130    1.0000 </r>
       <r>    3.8489    1.0000 </r>
       <r>    5.7336    1.0000 </r>
       <r>    6.6561    1.0000 </r>
       <r>    9.4049    1.0000 </r>
       <r>   10.3071   -0.0032 </r>
       <r>   12.1322    0.0000 </r>
       <r>   13.0150    0.0000 </r>
      </set>
      <set comment="kpoint 110">
       <r>    3.7320    1.0000 </r>
       <r>    4.5469    1.0000 </r>
       <r>    4.8084    1.0000 </r>
       <r>    5.6190    1.0000 </r>
       <r>   10.1939    0.9331 </r>
       <r>   10.9576    0.0000 </r>
       <r>   11.2636    0.0000 </r>
       <r>   12.0211    0.0000 </r>
      </set>
      <set comment="kpoint 111">
       <r>    1.2584    1.0000 </r>
       <r>    5.7307    1.0000 </r>
       <r>    6.0706    1.0000 </r>
       <r>    6.0706    1.0000 </r>
       <r>   10.2802    0.1450 </r>
       <r>   10.6768    0.0000 </r>
       <r>   10.6768    0.0000 </r>
       <r>   14.9750    0.0000 </r>
      </set>
      <set comment="kpoint 112">
       <r>    1.9698    1.0000 </r>
       <r>    4.7804    1.0000 </r>
       <r>    6.5580    1.0000 </r>
       <r>    6.7634    1.0000 </r>
       <r>    9.2795    1.0000 </r>
       <r>    9.5285    1.0000 </r>
       <r>   11.2406    0.0000 </r>
       <r>   13.8952    0.0000 </r>
      </set>
      <set comment="kpoint 113">
       <r>    2.7962    1.0000 </r>
       <r>    3.7350    1.0000 </r>
       <r>    7.3588    1.0000 </r>
       <r>    7.5710    1.0000 </r>
       <r>    8.2700    1.0000 </r>
       <r>    8.4929    1.0000 </r>
       <r>   12.0184    0.0000 </r>
       <r>   12.9063    0.0000 </r>
      </set>
      <set comment="kpoint 114">
       <r>    2.6786    1.0000 </r>
       <r>    5.3635    1.0000 </r>
       <r>    5.6150    1.0000 </r>
       <r>    7.3590    1.0000 </r>
       <r>    8.2578    1.0000 </r>
       <r>    9.9816    0.9986 </r>
       <r>   10.2268    0.6664 </r>
       <r>   12.7969    0.0000 </r>
      </set>
      <set comment="kpoint 115">
       <r>    3.5016    1.0000 </r>
       <r>    4.4345    1.0000 </r>
       <r>    6.3107    1.0000 </r>
       <r>    7.2300    1.0000 </r>
       <r>    8.1605    1.0000 </r>
       <r>    9.0716    1.0000 </r>
       <r>   10.9018    0.0000 </r>
       <r>   11.7962    0.0000 </r>
      </set>
      <set comment="kpoint 116">
       <r>    4.3185    1.0000 </r>
       <r>    5.1342    1.0000 </r>
       <r>    5.3867    1.0000 </r>
       <r>    6.1979    1.0000 </r>
       <r>    8.9555    1.0000 </r>
       <r>    9.7492    1.0000 </r>
       <r>   10.0011    0.9974 </r>
       <r>   10.7894    0.0000 </r>
      </set>
      <set comment="kpoint 117">
       <r>    3.3850    1.0000 </r>
       <r>    5.9627    1.0000 </r>
       <r>    6.3083    1.0000 </r>
       <r>    6.3083    1.0000 </r>
       <r>    8.7308    1.0000 </r>
       <r>    9.0769    1.0000 </r>
       <r>    9.0769    1.0000 </r>
       <r>   11.6851    0.0000 </r>
      </set>
      <set comment="kpoint 118">
       <r>    4.2047    1.0000 </r>
       <r>    5.1319    1.0000 </r>
       <r>    6.9046    1.0000 </r>
       <r>    7.1168    1.0000 </r>
       <r>    7.8111    1.0000 </r>
       <r>    8.0398    1.0000 </r>
       <r>    9.7740    1.0000 </r>
       <r>   10.6748    0.0000 </r>
      </set>
      <set comment="kpoint 119">
       <r>    5.0185    1.0000 </r>
       <r>    5.8296    1.0000 </r>
       <r>    6.0803    1.0000 </r>
       <r>    6.8866    1.0000 </r>
       <r>    7.8207    1.0000 </r>
       <r>    8.6347    1.0000 </r>
       <r>    8.8503    1.0000 </r>
       <r>    9.6589    1.0000 </r>
      </set>
      <set comment="kpoint 120">
       <r>    5.8263    1.0000 </r>
       <r>    6.5346    1.0000 </r>
       <r>    6.8891    1.0000 </r>
       <r>    6.8891    1.0000 </r>
       <r>    7.4985    1.0000 </r>
       <r>    7.8126    1.0000 </r>
       <r>    7.8126    1.0000 </r>
       <r>    8.6372    1.0000 </r>
      </set>
     </set>
    </set>
   </array>
  </eigenvalues>
  <separator name="orbital magnetization" >
   <v name="MAGDIPOLOUT">      0.00000000      0.00000000      0.00000000</v>
  </separator>
  <dos>
   <i name="efermi">     10.24289655 </i>
   <total>
    <array>
     <dimension dim="1">gridpoints</dimension>
     <dimension dim="2">spin</dimension>
     <field>energy</field>
     <field>total</field>
     <field>integrated</field>
     <set>
      <set comment="spin 1">
       <r>    -5.4263     0.0000     0.0000 </r>
       <r>    -5.3333     0.0000     0.0000 </r>
       <r>    -5.2403     0.0000     0.0000 </r>
       <r>    -5.1472     0.0000     0.0000 </r>
       <r>    -5.0542     0.0000     0.0000 </r>
       <r>    -4.9612     0.0000     0.0000 </r>
       <r>    -4.8682     0.0000     0.0000 </r>
       <r>    -4.7752     0.0000     0.0000 </r>
       <r>    -4.6822     0.0000     0.0000 </r>
       <r>    -4.5891     0.0000     0.0000 </r>
       <r>    -4.4961     0.0000     0.0000 </r>
       <r>    -4.4031     0.0001     0.0000 </r>
       <r>    -4.3101    -0.0004     0.0000 </r>
       <r>    -4.2171     0.0014     0.0001 </r>
       <r>    -4.1241     0.0281     0.0027 </r>
       <r>    -4.0310     0.0791     0.0101 </r>
       <r>    -3.9380     0.0965     0.0190 </r>
       <r>    -3.8450     0.0993     0.0283 </r>
       <r>    -3.7520     0.1275     0.0401 </r>
       <r>    -3.6590     0.1863     0.0575 </r>
       <r>    -3.5659     0.1443     0.0709 </r>
       <r>    -3.4729     0.1028     0.0805 </r>
       <r>    -3.3799     0.1970     0.0988 </r>
       <r>    -3.2869     0.2925     0.1260 </r>
       <r>    -3.1939     0.1747     0.1422 </r>
       <r>    -3.1009     0.1108     0.1525 </r>
       <r>    -3.0078     0.2375     0.1746 </r>
       <r>    -2.9148     0.2960     0.2022 </r>
       <r>    -2.8218     0.2183     0.2225 </r>
       <r>    -2.7288     0.2151     0.2425 </r>
       <r>    -2.6358     0.3007     0.2705 </r>
       <r>    -2.5428     0.3007     0.2984 </r>
       <r>    -2.4497     0.2156     0.3185 </r>
       <r>    -2.3567     0.1782     0.3351 </r>
       <r>    -2.2637     0.2298     0.3564 </r>
       <r>    -2.1707     0.5098     0.4038 </r>
       <r>    -2.0777     0.3248     0.4341 </r>
       <r>    -1.9846     0.2379     0.4562 </r>
       <r>    -1.8916     0.2591     0.4803 </r>
       <r>    -1.7986     0.4057     0.5180 </r>
       <r>    -1.7056     0.0905     0.5264 </r>
       <r>    -1.6126     0.3480     0.5588 </r>
       <r>    -1.5196     0.5060     0.6059 </r>
       <r>    -1.4265     0.4706     0.6496 </r>
       <r>    -1.3335     0.1878     0.6671 </r>
       <r>    -1.2405     0.3453     0.6992 </r>
       <r>    -1.1475     0.3945     0.7359 </r>
       <r>    -1.0545     0.3733     0.7707 </r>
       <r>    -0.9615     0.2924     0.7979 </r>
       <r>    -0.8684     0.3746     0.8327 </r>
       <r>    -0.7754     0.4607     0.8756 </r>
       <r>    -0.6824     0.4030     0.9130 </r>
       <r>    -0.5894     0.1895     0.9307 </r>
       <r>    -0.4964     0.4100     0.9688 </r>
       <r>    -0.4034     0.6386     1.0282 </r>
       <r>    -0.3103     0.5640     1.0807 </r>
       <r>    -0.2173     0.3424     1.1125 </r>
       <r>    -0.1243     0.1862     1.1298 </r>
       <r>    -0.0313     0.4724     1.1738 </r>
       <r>     0.0617     0.3701     1.2082 </r>
       <r>     0.1548     0.3005     1.2362 </r>
       <r>     0.2478     0.4209     1.2753 </r>
       <r>     0.3408     0.8169     1.3513 </r>
       <r>     0.4338     0.3927     1.3878 </r>
       <r>     0.5268     0.4060     1.4256 </r>
       <r>     0.6198     0.5812     1.4797 </r>
       <r>     0.7129     0.3932     1.5162 </r>
       <r>     0.8059     0.2865     1.5429 </r>
       <r>     0.8989     0.4808     1.5876 </r>
       <r>     0.9919     0.5747     1.6411 </r>
       <r>     1.0849     0.4813     1.6858 </r>
       <r>     1.1779     0.4003     1.7231 </r>
       <r>     1.2710     0.3936     1.7597 </r>
       <r>     1.3640     0.6240     1.8177 </r>
       <r>     1.4570     0.7075     1.8835 </r>
       <r>     1.5500     0.2760     1.9092 </r>
       <r>     1.6430     0.4652     1.9525 </r>
       <r>     1.7361     0.7439     2.0217 </r>
       <r>     1.8291     0.5505     2.0729 </r>
       <r>     1.9221     0.2068     2.0921 </r>
       <r>     2.0151     0.6063     2.1485 </r>
       <r>     2.1081     0.9084     2.2330 </r>
       <r>     2.2011     0.4509     2.2749 </r>
       <r>     2.2942     0.2207     2.2955 </r>
       <r>     2.3872     0.4252     2.3350 </r>
       <r>     2.4802     0.5015     2.3817 </r>
       <r>     2.5732     0.5706     2.4347 </r>
       <r>     2.6662     0.7070     2.5005 </r>
       <r>     2.7592     0.7790     2.5730 </r>
       <r>     2.8523     0.6846     2.6366 </r>
       <r>     2.9453     0.5179     2.6848 </r>
       <r>     3.0383     0.4031     2.7223 </r>
       <r>     3.1313     0.6295     2.7809 </r>
       <r>     3.2243     0.8079     2.8560 </r>
       <r>     3.3174     0.2949     2.8834 </r>
       <r>     3.4104     0.5345     2.9332 </r>
       <r>     3.5034     0.4965     2.9793 </r>
       <r>     3.5964     0.4544     3.0216 </r>
       <r>     3.6894     0.5934     3.0768 </r>
       <r>     3.7824     1.0152     3.1712 </r>
       <r>     3.8755     0.6259     3.2295 </r>
       <r>     3.9685     0.5726     3.2827 </r>
       <r>     4.0615     0.5846     3.3371 </r>
       <r>     4.1545     0.4160     3.3758 </r>
       <r>     4.2475     0.6897     3.4400 </r>
       <r>     4.3405     0.5820     3.4941 </r>
       <r>     4.4336     0.7566     3.5645 </r>
       <r>     4.5266     0.7328     3.6326 </r>
       <r>     4.6196     0.6397     3.6921 </r>
       <r>     4.7126     0.3135     3.7213 </r>
       <r>     4.8056     0.8843     3.8035 </r>
       <r>     4.8987     0.5878     3.8582 </r>
       <r>     4.9917     0.5041     3.9051 </r>
       <r>     5.0847     0.6846     3.9688 </r>
       <r>     5.1777     0.7393     4.0376 </r>
       <r>     5.2707     0.6729     4.1001 </r>
       <r>     5.3637     0.5480     4.1511 </r>
       <r>     5.4568     0.4978     4.1974 </r>
       <r>     5.5498     0.8200     4.2737 </r>
       <r>     5.6428     0.9858     4.3654 </r>
       <r>     5.7358     0.6968     4.4302 </r>
       <r>     5.8288     0.8742     4.5115 </r>
       <r>     5.9218     0.7742     4.5835 </r>
       <r>     6.0149     0.1233     4.5950 </r>
       <r>     6.1079     0.7380     4.6637 </r>
       <r>     6.2009     0.7705     4.7353 </r>
       <r>     6.2939     0.8589     4.8152 </r>
       <r>     6.3869     0.6742     4.8779 </r>
       <r>     6.4800     0.3500     4.9105 </r>
       <r>     6.5730     0.5480     4.9614 </r>
       <r>     6.6660     0.9517     5.0500 </r>
       <r>     6.7590     0.7137     5.1164 </r>
       <r>     6.8520     0.7538     5.1865 </r>
       <r>     6.9450     1.2411     5.3019 </r>
       <r>     7.0381     0.8110     5.3774 </r>
       <r>     7.1311     0.5366     5.4273 </r>
       <r>     7.2241     0.6490     5.4876 </r>
       <r>     7.3171     0.8277     5.5646 </r>
       <r>     7.4101     0.8872     5.6471 </r>
       <r>     7.5031     0.5137     5.6949 </r>
       <r>     7.5962     0.4023     5.7324 </r>
       <r>     7.6892     0.7451     5.8017 </r>
       <r>     7.7822     0.9179     5.8870 </r>
       <r>     7.8752     0.9541     5.9758 </r>
       <r>     7.9682     0.7738     6.0478 </r>
       <r>     8.0613     0.9835     6.1392 </r>
       <r>     8.1543     0.5766     6.1929 </r>
       <r>     8.2473     0.6798     6.2561 </r>
       <r>     8.3403     0.8430     6.3345 </r>
       <r>     8.4333     0.9160     6.4197 </r>
       <r>     8.5263     0.9003     6.5035 </r>
       <r>     8.6194     0.6173     6.5609 </r>
       <r>     8.7124     0.8191     6.6371 </r>
       <r>     8.8054     0.7832     6.7099 </r>
       <r>     8.8984     0.8211     6.7863 </r>
       <r>     8.9914     0.9299     6.8728 </r>
       <r>     9.0844     0.9655     6.9626 </r>
       <r>     9.1775     0.7472     7.0321 </r>
       <r>     9.2705     0.8968     7.1155 </r>
       <r>     9.3635     0.8664     7.1961 </r>
       <r>     9.4565     0.6722     7.2587 </r>
       <r>     9.5495     0.8757     7.3401 </r>
       <r>     9.6426     1.0830     7.4409 </r>
       <r>     9.7356     0.7568     7.5113 </r>
       <r>     9.8286     0.7164     7.5779 </r>
       <r>     9.9216     0.8850     7.6602 </r>
       <r>    10.0146     1.1412     7.7664 </r>
       <r>    10.1076     0.8766     7.8479 </r>
       <r>    10.2007     1.1104     7.9512 </r>
       <r>    10.2937     1.0002     8.0442 </r>
       <r>    10.3867     0.6468     8.1044 </r>
       <r>    10.4797     0.9309     8.1910 </r>
       <r>    10.5727     0.8364     8.2688 </r>
       <r>    10.6657     0.7738     8.3408 </r>
       <r>    10.7588     1.3652     8.4677 </r>
       <r>    10.8518     0.8337     8.5453 </r>
       <r>    10.9448     1.0466     8.6426 </r>
       <r>    11.0378     0.7829     8.7155 </r>
       <r>    11.1308     0.2624     8.7399 </r>
       <r>    11.2238     0.7017     8.8051 </r>
       <r>    11.3169     1.0272     8.9007 </r>
       <r>    11.4099     0.8776     8.9823 </r>
       <r>    11.5029     1.1245     9.0869 </r>
       <r>    11.5959     0.7989     9.1612 </r>
       <r>    11.6889     0.8948     9.2445 </r>
       <r>    11.7820     0.8028     9.3191 </r>
       <r>    11.8750     0.9730     9.4096 </r>
       <r>    11.9680     0.9850     9.5013 </r>
       <r>    12.0610     0.5376     9.5513 </r>
       <r>    12.1540     0.7675     9.6227 </r>
       <r>    12.2470     1.1648     9.7310 </r>
       <r>    12.3401     0.2935     9.7583 </r>
       <r>    12.4331     0.9049     9.8425 </r>
       <r>    12.5261     0.9367     9.9296 </r>
       <r>    12.6191     0.6627     9.9913 </r>
       <r>    12.7121     0.6369    10.0505 </r>
       <r>    12.8051     0.7484    10.1201 </r>
       <r>    12.8982     1.3976    10.2501 </r>
       <r>    12.9912     1.6197    10.4008 </r>
       <r>    13.0842     0.9253    10.4868 </r>
       <r>    13.1772     0.3105    10.5157 </r>
       <r>    13.2702     0.8896    10.5985 </r>
       <r>    13.3633     0.9142    10.6835 </r>
       <r>    13.4563     0.9641    10.7732 </r>
       <r>    13.5493     1.1057    10.8760 </r>
       <r>    13.6423     0.9472    10.9641 </r>
       <r>    13.7353     0.4057    11.0019 </r>
       <r>    13.8283     1.0121    11.0960 </r>
       <r>    13.9214     0.7255    11.1635 </r>
       <r>    14.0144     0.7082    11.2294 </r>
       <r>    14.1074     1.1771    11.3389 </r>
       <r>    14.2004     1.1582    11.4466 </r>
       <r>    14.2934     1.0820    11.5473 </r>
       <r>    14.3864     1.0398    11.6440 </r>
       <r>    14.4795     0.9169    11.7293 </r>
       <r>    14.5725     1.2078    11.8416 </r>
       <r>    14.6655     0.8950    11.9249 </r>
       <r>    14.7585     0.9898    12.0169 </r>
       <r>    14.8515     0.9616    12.1064 </r>
       <r>    14.9446     0.9771    12.1973 </r>
       <r>    15.0376     1.0511    12.2950 </r>
       <r>    15.1306     1.0269    12.3906 </r>
       <r>    15.2236     0.3063    12.4191 </r>
       <r>    15.3166     0.8813    12.5010 </r>
       <r>    15.4096     1.6477    12.6543 </r>
       <r>    15.5027     1.4007    12.7846 </r>
       <r>    15.5957     0.6874    12.8485 </r>
       <r>    15.6887     0.9271    12.9348 </r>
       <r>    15.7817     1.3354    13.0590 </r>
       <r>    15.8747     0.9265    13.1452 </r>
       <r>    15.9677     0.7704    13.2168 </r>
       <r>    16.0608     0.8611    13.2969 </r>
       <r>    16.1538     1.0589    13.3954 </r>
       <r>    16.2468     0.7218    13.4626 </r>
       <r>    16.3398     1.3610    13.5892 </r>
       <r>    16.4328     1.2342    13.7040 </r>
       <r>    16.5259     0.4813    13.7487 </r>
       <r>    16.6189     1.0374    13.8452 </r>
       <r>    16.7119     1.7143    14.0047 </r>
       <r>    16.8049     0.7906    14.0782 </r>
       <r>    16.8979     0.9480    14.1664 </r>
       <r>    16.9909     1.5066    14.3065 </r>
       <r>    17.0840     1.2351    14.4214 </r>
       <r>    17.1770     0.6059    14.4778 </r>
       <r>    17.2700     0.9578    14.5669 </r>
       <r>    17.3630     0.9216    14.6526 </r>
       <r>    17.4560     0.8707    14.7336 </r>
       <r>    17.5490     0.6173    14.7910 </r>
       <r>    17.6421     0.9145    14.8761 </r>
       <r>    17.7351     1.6515    15.0297 </r>
       <r>    17.8281     1.2412    15.1451 </r>
       <r>    17.9211     1.0261    15.2406 </r>
       <r>    18.0141     1.5633    15.3860 </r>
       <r>    18.1072     1.0757    15.4861 </r>
       <r>    18.2002     0.7828    15.5589 </r>
       <r>    18.2932     0.9584    15.6480 </r>
       <r>    18.3862     0.6428    15.7078 </r>
       <r>    18.4792     0.6380    15.7672 </r>
       <r>    18.5722     0.8000    15.8416 </r>
       <r>    18.6653     0.2499    15.8648 </r>
       <r>    18.7583     0.3192    15.8945 </r>
       <r>    18.8513     0.2264    15.9156 </r>
       <r>    18.9443     0.1929    15.9335 </r>
       <r>    19.0373     0.1168    15.9444 </r>
       <r>    19.1303     0.2496    15.9676 </r>
       <r>    19.2234     0.1159    15.9784 </r>
       <r>    19.3164     0.0693    15.9848 </r>
       <r>    19.4094    -0.0051    15.9843 </r>
       <r>    19.5024     0.0002    15.9844 </r>
       <r>    19.5954     0.0001    15.9844 </r>
       <r>    19.6885     0.0000    15.9844 </r>
       <r>    19.7815     0.0000    15.9844 </r>
       <r>    19.8745     0.0000    15.9844 </r>
       <r>    19.9675     0.0001    15.9844 </r>
       <r>    20.0605     0.0006    15.9844 </r>
       <r>    20.1535    -0.0066    15.9838 </r>
       <r>    20.2466     0.0503    15.9885 </r>
       <r>    20.3396     0.0867    15.9966 </r>
       <r>    20.4326    -0.0050    15.9961 </r>
       <r>    20.5256    -0.0001    15.9961 </r>
       <r>    20.6186     0.0002    15.9961 </r>
       <r>    20.7116     0.0000    15.9961 </r>
       <r>    20.8047     0.0000    15.9961 </r>
       <r>    20.8977     0.0000    15.9961 </r>
       <r>    20.9907     0.0002    15.9961 </r>
       <r>    21.0837    -0.0015    15.9960 </r>
       <r>    21.1767     0.0085    15.9968 </r>
       <r>    21.2698     0.0341    15.9999 </r>
       <r>    21.3628     0.0011    16.0000 </r>
       <r>    21.4558    -0.0005    16.0000 </r>
       <r>    21.5488     0.0001    16.0000 </r>
       <r>    21.6418     0.0000    16.0000 </r>
       <r>    21.7348     0.0000    16.0000 </r>
       <r>    21.8279     0.0000    16.0000 </r>
       <r>    21.9209     0.0000    16.0000 </r>
       <r>    22.0139     0.0000    16.0000 </r>
       <r>    22.1069     0.0000    16.0000 </r>
       <r>    22.1999     0.0000    16.0000 </r>
       <r>    22.2929     0.0000    16.0000 </r>
       <r>    22.3860     0.0000    16.0000 </r>
       <r>    22.4790     0.0000    16.0000 </r>
      </set>
     </set>
    </array>
   </total>
  </dos>
 </calculation>
 <structure name="finalpos" >
  <crystal>
   <varray name="basis" >
    <v>       3.05254867       0.00000000       0.00000000 </v>
    <v>       0.00000000       3.05254867       0.00000000 </v>
    <v>       0.00000000       0.00000000       3.05254867 </v>
   </varray>
   <i name="volume">     28.44381160 </i>
   <varray name="rec_basis" >
    <v>       0.32759510       0.00000000       0.00000000 </v>
    <v>       0.00000000       0.32759510       0.00000000 </v>
    <v>       0.00000000       0.00000000       0.32759510 </v>
   </varray>
  </crystal>
  <varray name="positions" >
   <v>       0.00000000       0.00000000       0.00000000 </v>
   <v>       0.50000000       0.50000000       0.50000000 </v>
  </varray>
 </structure>
</modeling>
