<?xml version="1.0" encoding="ISO-8859-1"?>
<modeling>
 <generator>
  <i name="program" type="string">vasp </i>
  <i name="version" type="string">5.4.1  </i>
  <i name="subversion" type="string">24Jun15 (build Jul  8 2015 13:29:37) complex                          parallel </i>
  <i name="platform" type="string">FX10FRT </i>
  <i name="date" type="string">2016 02 20 </i>
  <i name="time" type="string">07:00:49 </i>
 </generator>
 <incar>
  <i type="string" name="PREC">accurate</i>
  <i type="string" name="ALGO"> Normal</i>
  <i type="int" name="ISPIN">     1</i>
  <i type="int" name="IBRION">    -1</i>
  <i name="EDIFF">      0.00010000</i>
  <i type="int" name="NSW">     0</i>
  <i type="int" name="ISIF">     2</i>
  <i name="ENCUT">    400.00000000</i>
  <i type="int" name="ISMEAR">     2</i>
  <i name="SIGMA">      0.10000000</i>
  <i type="int" name="NWRITE">     1</i>
  <v type="int" name="KPOINT_BSE">    -1     0     0     0</v>
 </incar>
 <kpoints>
  <generation param="Monkhorst-Pack">
   <v type="int" name="divisions">      16       16       16 </v>
   <v name="usershift">      0.00000000       0.00000000       0.00000000 </v>
   <v name="genvec1">      0.06250000       0.00000000       0.00000000 </v>
   <v name="genvec2">      0.00000000       0.06250000       0.00000000 </v>
   <v name="genvec3">      0.00000000       0.00000000       0.06250000 </v>
   <v name="shift">      0.50000000       0.50000000       0.50000000 </v>
  </generation>
  <varray name="kpointlist" >
   <v>       0.03125000       0.03125000       0.03125000 </v>
   <v>       0.09375000       0.03125000       0.03125000 </v>
   <v>       0.15625000       0.03125000       0.03125000 </v>
   <v>       0.21875000       0.03125000       0.03125000 </v>
   <v>       0.28125000       0.03125000       0.03125000 </v>
   <v>       0.34375000       0.03125000       0.03125000 </v>
   <v>       0.40625000       0.03125000       0.03125000 </v>
   <v>       0.46875000       0.03125000       0.03125000 </v>
   <v>       0.09375000       0.09375000       0.03125000 </v>
   <v>       0.15625000       0.09375000       0.03125000 </v>
   <v>       0.21875000       0.09375000       0.03125000 </v>
   <v>       0.28125000       0.09375000       0.03125000 </v>
   <v>       0.34375000       0.09375000       0.03125000 </v>
   <v>       0.40625000       0.09375000       0.03125000 </v>
   <v>       0.46875000       0.09375000       0.03125000 </v>
   <v>       0.15625000       0.15625000       0.03125000 </v>
   <v>       0.21875000       0.15625000       0.03125000 </v>
   <v>       0.28125000       0.15625000       0.03125000 </v>
   <v>       0.34375000       0.15625000       0.03125000 </v>
   <v>       0.40625000       0.15625000       0.03125000 </v>
   <v>       0.46875000       0.15625000       0.03125000 </v>
   <v>       0.21875000       0.21875000       0.03125000 </v>
   <v>       0.28125000       0.21875000       0.03125000 </v>
   <v>       0.34375000       0.21875000       0.03125000 </v>
   <v>       0.40625000       0.21875000       0.03125000 </v>
   <v>       0.46875000       0.21875000       0.03125000 </v>
   <v>       0.28125000       0.28125000       0.03125000 </v>
   <v>       0.34375000       0.28125000       0.03125000 </v>
   <v>       0.40625000       0.28125000       0.03125000 </v>
   <v>       0.46875000       0.28125000       0.03125000 </v>
   <v>       0.34375000       0.34375000       0.03125000 </v>
   <v>       0.40625000       0.34375000       0.03125000 </v>
   <v>       0.46875000       0.34375000       0.03125000 </v>
   <v>       0.40625000       0.40625000       0.03125000 </v>
   <v>       0.46875000       0.40625000       0.03125000 </v>
   <v>       0.46875000       0.46875000       0.03125000 </v>
   <v>       0.09375000       0.09375000       0.09375000 </v>
   <v>       0.15625000       0.09375000       0.09375000 </v>
   <v>       0.21875000       0.09375000       0.09375000 </v>
   <v>       0.28125000       0.09375000       0.09375000 </v>
   <v>       0.34375000       0.09375000       0.09375000 </v>
   <v>       0.40625000       0.09375000       0.09375000 </v>
   <v>       0.46875000       0.09375000       0.09375000 </v>
   <v>       0.15625000       0.15625000       0.09375000 </v>
   <v>       0.21875000       0.15625000       0.09375000 </v>
   <v>       0.28125000       0.15625000       0.09375000 </v>
   <v>       0.34375000       0.15625000       0.09375000 </v>
   <v>       0.40625000       0.15625000       0.09375000 </v>
   <v>       0.46875000       0.15625000       0.09375000 </v>
   <v>       0.21875000       0.21875000       0.09375000 </v>
   <v>       0.28125000       0.21875000       0.09375000 </v>
   <v>       0.34375000       0.21875000       0.09375000 </v>
   <v>       0.40625000       0.21875000       0.09375000 </v>
   <v>       0.46875000       0.21875000       0.09375000 </v>
   <v>       0.28125000       0.28125000       0.09375000 </v>
   <v>       0.34375000       0.28125000       0.09375000 </v>
   <v>       0.40625000       0.28125000       0.09375000 </v>
   <v>       0.46875000       0.28125000       0.09375000 </v>
   <v>       0.34375000       0.34375000       0.09375000 </v>
   <v>       0.40625000       0.34375000       0.09375000 </v>
   <v>       0.46875000       0.34375000       0.09375000 </v>
   <v>       0.40625000       0.40625000       0.09375000 </v>
   <v>       0.46875000       0.40625000       0.09375000 </v>
   <v>       0.46875000       0.46875000       0.09375000 </v>
   <v>       0.15625000       0.15625000       0.15625000 </v>
   <v>       0.21875000       0.15625000       0.15625000 </v>
   <v>       0.28125000       0.15625000       0.15625000 </v>
   <v>       0.34375000       0.15625000       0.15625000 </v>
   <v>       0.40625000       0.15625000       0.15625000 </v>
   <v>       0.46875000       0.15625000       0.15625000 </v>
   <v>       0.21875000       0.21875000       0.15625000 </v>
   <v>       0.28125000       0.21875000       0.15625000 </v>
   <v>       0.34375000       0.21875000       0.15625000 </v>
   <v>       0.40625000       0.21875000       0.15625000 </v>
   <v>       0.46875000       0.21875000       0.15625000 </v>
   <v>       0.28125000       0.28125000       0.15625000 </v>
   <v>       0.34375000       0.28125000       0.15625000 </v>
   <v>       0.40625000       0.28125000       0.15625000 </v>
   <v>       0.46875000       0.28125000       0.15625000 </v>
   <v>       0.34375000       0.34375000       0.15625000 </v>
   <v>       0.40625000       0.34375000       0.15625000 </v>
   <v>       0.46875000       0.34375000       0.15625000 </v>
   <v>       0.40625000       0.40625000       0.15625000 </v>
   <v>       0.46875000       0.40625000       0.15625000 </v>
   <v>       0.46875000       0.46875000       0.15625000 </v>
   <v>       0.21875000       0.21875000       0.21875000 </v>
   <v>       0.28125000       0.21875000       0.21875000 </v>
   <v>       0.34375000       0.21875000       0.21875000 </v>
   <v>       0.40625000       0.21875000       0.21875000 </v>
   <v>       0.46875000       0.21875000       0.21875000 </v>
   <v>       0.28125000       0.28125000       0.21875000 </v>
   <v>       0.34375000       0.28125000       0.21875000 </v>
   <v>       0.40625000       0.28125000       0.21875000 </v>
   <v>       0.46875000       0.28125000       0.21875000 </v>
   <v>       0.34375000       0.34375000       0.21875000 </v>
   <v>       0.40625000       0.34375000       0.21875000 </v>
   <v>       0.46875000       0.34375000       0.21875000 </v>
   <v>       0.40625000       0.40625000       0.21875000 </v>
   <v>       0.46875000       0.40625000       0.21875000 </v>
   <v>       0.46875000       0.46875000       0.21875000 </v>
   <v>       0.28125000       0.28125000       0.28125000 </v>
   <v>       0.34375000       0.28125000       0.28125000 </v>
   <v>       0.40625000       0.28125000       0.28125000 </v>
   <v>       0.46875000       0.28125000       0.28125000 </v>
   <v>       0.34375000       0.34375000       0.28125000 </v>
   <v>       0.40625000       0.34375000       0.28125000 </v>
   <v>       0.46875000       0.34375000       0.28125000 </v>
   <v>       0.40625000       0.40625000       0.28125000 </v>
   <v>       0.46875000       0.40625000       0.28125000 </v>
   <v>       0.46875000       0.46875000       0.28125000 </v>
   <v>       0.34375000       0.34375000       0.34375000 </v>
   <v>       0.40625000       0.34375000       0.34375000 </v>
   <v>       0.46875000       0.34375000       0.34375000 </v>
   <v>       0.40625000       0.40625000       0.34375000 </v>
   <v>       0.46875000       0.40625000       0.34375000 </v>
   <v>       0.46875000       0.46875000       0.34375000 </v>
   <v>       0.40625000       0.40625000       0.40625000 </v>
   <v>       0.46875000       0.40625000       0.40625000 </v>
   <v>       0.46875000       0.46875000       0.40625000 </v>
   <v>       0.46875000       0.46875000       0.46875000 </v>
  </varray>
  <varray name="weights" >
   <v>       0.00195312 </v>
   <v>       0.00585938 </v>
   <v>       0.00585938 </v>
   <v>       0.00585938 </v>
   <v>       0.00585938 </v>
   <v>       0.00585938 </v>
   <v>       0.00585938 </v>
   <v>       0.00585938 </v>
   <v>       0.00585938 </v>
   <v>       0.01171875 </v>
   <v>       0.01171875 </v>
   <v>       0.01171875 </v>
   <v>       0.01171875 </v>
   <v>       0.01171875 </v>
   <v>       0.01171875 </v>
   <v>       0.00585938 </v>
   <v>       0.01171875 </v>
   <v>       0.01171875 </v>
   <v>       0.01171875 </v>
   <v>       0.01171875 </v>
   <v>       0.01171875 </v>
   <v>       0.00585938 </v>
   <v>       0.01171875 </v>
   <v>       0.01171875 </v>
   <v>       0.01171875 </v>
   <v>       0.01171875 </v>
   <v>       0.00585938 </v>
   <v>       0.01171875 </v>
   <v>       0.01171875 </v>
   <v>       0.01171875 </v>
   <v>       0.00585938 </v>
   <v>       0.01171875 </v>
   <v>       0.01171875 </v>
   <v>       0.00585938 </v>
   <v>       0.01171875 </v>
   <v>       0.00585938 </v>
   <v>       0.00195312 </v>
   <v>       0.00585938 </v>
   <v>       0.00585938 </v>
   <v>       0.00585938 </v>
   <v>       0.00585938 </v>
   <v>       0.00585938 </v>
   <v>       0.00585938 </v>
   <v>       0.00585938 </v>
   <v>       0.01171875 </v>
   <v>       0.01171875 </v>
   <v>       0.01171875 </v>
   <v>       0.01171875 </v>
   <v>       0.01171875 </v>
   <v>       0.00585938 </v>
   <v>       0.01171875 </v>
   <v>       0.01171875 </v>
   <v>       0.01171875 </v>
   <v>       0.01171875 </v>
   <v>       0.00585938 </v>
   <v>       0.01171875 </v>
   <v>       0.01171875 </v>
   <v>       0.01171875 </v>
   <v>       0.00585938 </v>
   <v>       0.01171875 </v>
   <v>       0.01171875 </v>
   <v>       0.00585938 </v>
   <v>       0.01171875 </v>
   <v>       0.00585938 </v>
   <v>       0.00195312 </v>
   <v>       0.00585938 </v>
   <v>       0.00585938 </v>
   <v>       0.00585938 </v>
   <v>       0.00585938 </v>
   <v>       0.00585938 </v>
   <v>       0.00585938 </v>
   <v>       0.01171875 </v>
   <v>       0.01171875 </v>
   <v>       0.01171875 </v>
   <v>       0.01171875 </v>
   <v>       0.00585938 </v>
   <v>       0.01171875 </v>
   <v>       0.01171875 </v>
   <v>       0.01171875 </v>
   <v>       0.00585938 </v>
   <v>       0.01171875 </v>
   <v>       0.01171875 </v>
   <v>       0.00585938 </v>
   <v>       0.01171875 </v>
   <v>       0.00585938 </v>
   <v>       0.00195312 </v>
   <v>       0.00585938 </v>
   <v>       0.00585938 </v>
   <v>       0.00585938 </v>
   <v>       0.00585938 </v>
   <v>       0.00585938 </v>
   <v>       0.01171875 </v>
   <v>       0.01171875 </v>
   <v>       0.01171875 </v>
   <v>       0.00585938 </v>
   <v>       0.01171875 </v>
   <v>       0.01171875 </v>
   <v>       0.00585938 </v>
   <v>       0.01171875 </v>
   <v>       0.00585938 </v>
   <v>       0.00195312 </v>
   <v>       0.00585938 </v>
   <v>       0.00585938 </v>
   <v>       0.00585938 </v>
   <v>       0.00585938 </v>
   <v>       0.01171875 </v>
   <v>       0.01171875 </v>
   <v>       0.00585938 </v>
   <v>       0.01171875 </v>
   <v>       0.00585938 </v>
   <v>       0.00195312 </v>
   <v>       0.00585938 </v>
   <v>       0.00585938 </v>
   <v>       0.00585938 </v>
   <v>       0.01171875 </v>
   <v>       0.00585938 </v>
   <v>       0.00195312 </v>
   <v>       0.00585938 </v>
   <v>       0.00585938 </v>
   <v>       0.00195312 </v>
  </varray>
 </kpoints>
 <parameters>
  <separator name="general" >
   <i type="string" name="SYSTEM">unknown system</i>
   <i type="logical" name="LCOMPAT"> F  </i>
  </separator>
  <separator name="electronic" >
   <i type="string" name="PREC">accura</i>
   <i name="ENMAX">    400.00000000</i>
   <i name="ENAUG">    322.06900000</i>
   <i name="EDIFF">      0.00010000</i>
   <i type="int" name="IALGO">    38</i>
   <i type="int" name="IWAVPR">    10</i>
   <i type="int" name="NBANDS">     8</i>
   <i name="NELECT">      8.00000000</i>
   <i type="int" name="TURBO">     0</i>
   <i type="int" name="IRESTART">     0</i>
   <i type="int" name="NREBOOT">     0</i>
   <i type="int" name="NMIN">     0</i>
   <i name="EREF">      0.00000000</i>
   <separator name="electronic smearing" >
    <i type="int" name="ISMEAR">     2</i>
    <i name="SIGMA">      0.10000000</i>
    <i name="KSPACING">      0.50000000</i>
    <i type="logical" name="KGAMMA"> T  </i>
   </separator>
   <separator name="electronic projectors" >
    <i type="logical" name="LREAL"> F  </i>
    <v name="ROPT">      0.00000000</v>
    <i type="int" name="LMAXPAW">  -100</i>
    <i type="int" name="LMAXMIX">     2</i>
    <i type="logical" name="NLSPLINE"> F  </i>
   </separator>
   <separator name="electronic startup" >
    <i type="int" name="ISTART">     0</i>
    <i type="int" name="ICHARG">     2</i>
    <i type="int" name="INIWAV">     1</i>
   </separator>
   <separator name="electronic spin" >
    <i type="int" name="ISPIN">     1</i>
    <i type="logical" name="LNONCOLLINEAR"> F  </i>
    <v name="MAGMOM">      1.00000000      1.00000000</v>
    <i name="NUPDOWN">     -1.00000000</i>
    <i type="logical" name="LSORBIT"> F  </i>
    <v name="SAXIS">      0.00000000      0.00000000      1.00000000</v>
    <i type="logical" name="LSPIRAL"> F  </i>
    <v name="QSPIRAL">      0.00000000      0.00000000      0.00000000</v>
    <i type="logical" name="LZEROZ"> F  </i>
   </separator>
   <separator name="electronic exchange-correlation" >
    <i type="logical" name="LASPH"> F  </i>
    <i type="logical" name="LMETAGGA"> F  </i>
   </separator>
   <separator name="electronic convergence" >
    <i type="int" name="NELM">    60</i>
    <i type="int" name="NELMDL">    -5</i>
    <i type="int" name="NELMIN">     2</i>
    <i name="ENINI">    400.00000000</i>
    <separator name="electronic convergence detail" >
     <i type="logical" name="LDIAG"> T  </i>
     <i type="logical" name="LSUBROT"> F  </i>
     <i name="WEIMIN">      0.00000000</i>
     <i name="EBREAK">      0.00000313</i>
     <i name="DEPER">      0.30000000</i>
     <i type="int" name="NRMM">     4</i>
     <i name="TIME">      0.40000000</i>
    </separator>
   </separator>
   <separator name="electronic mixer" >
    <i name="AMIX">      0.40000000</i>
    <i name="BMIX">      1.00000000</i>
    <i name="AMIN">      0.10000000</i>
    <i name="AMIX_MAG">      1.60000000</i>
    <i name="BMIX_MAG">      1.00000000</i>
    <separator name="electronic mixer details" >
     <i type="int" name="IMIX">     4</i>
     <i type="logical" name="MIXFIRST"> F  </i>
     <i type="int" name="MAXMIX">   -45</i>
     <i name="WC">    100.00000000</i>
     <i type="int" name="INIMIX">     1</i>
     <i type="int" name="MIXPRE">     1</i>
     <i type="int" name="MREMOVE">     5</i>
    </separator>
   </separator>
   <separator name="electronic dipolcorrection" >
    <i type="logical" name="LDIPOL"> F  </i>
    <i type="logical" name="LMONO"> F  </i>
    <i type="int" name="IDIPOL">     0</i>
    <i name="EPSILON">      1.00000000</i>
    <v name="DIPOL">   -100.00000000   -100.00000000   -100.00000000</v>
    <i name="EFIELD">      0.00000000</i>
   </separator>
  </separator>
  <separator name="grids" >
   <i type="int" name="NGX">    20</i>
   <i type="int" name="NGY">    20</i>
   <i type="int" name="NGZ">    20</i>
   <i type="int" name="NGXF">    40</i>
   <i type="int" name="NGYF">    40</i>
   <i type="int" name="NGZF">    40</i>
   <i type="logical" name="ADDGRID"> F  </i>
  </separator>
  <separator name="ionic" >
   <i type="int" name="NSW">     0</i>
   <i type="int" name="IBRION">    -1</i>
   <i type="int" name="ISIF">     2</i>
   <i name="PSTRESS">      0.00000000</i>
   <i name="EDIFFG">      0.00100000</i>
   <i type="int" name="NFREE">     0</i>
   <i name="POTIM">      0.50000000</i>
   <i name="SMASS">     -3.00000000</i>
   <i name="SCALEE">      1.00000000</i>
  </separator>
  <separator name="ionic md" >
   <i name="TEBEG">      0.00010000</i>
   <i name="TEEND">      0.00010000</i>
   <i type="int" name="NBLOCK">     1</i>
   <i type="int" name="KBLOCK">     1</i>
   <i type="int" name="NPACO">   256</i>
   <i name="APACO">     16.00000000</i>
  </separator>
  <separator name="symmetry" >
   <i type="int" name="ISYM">     2</i>
   <i name="SYMPREC">      0.00001000</i>
  </separator>
  <separator name="dos" >
   <i type="logical" name="LORBIT"> F  </i>
   <v name="RWIGS">     -1.00000000</v>
   <i type="int" name="NEDOS">   301</i>
   <i name="EMIN">     10.00000000</i>
   <i name="EMAX">    -10.00000000</i>
   <i name="EFERMI">      0.00000000</i>
  </separator>
  <separator name="writing" >
   <i type="int" name="NWRITE">     1</i>
   <i type="logical" name="LWAVE"> T  </i>
   <i type="logical" name="LCHARG"> T  </i>
   <i type="logical" name="LPARD"> F  </i>
   <i type="logical" name="LVTOT"> F  </i>
   <i type="logical" name="LVHAR"> F  </i>
   <i type="logical" name="LELF"> F  </i>
   <i type="logical" name="LOPTICS"> F  </i>
   <v name="STM">      0.00000000      0.00000000      0.00000000      0.00000000      0.00000000      0.00000000      0.00000000</v>
  </separator>
  <separator name="performance" >
   <i type="int" name="NPAR">     8</i>
   <i type="int" name="NSIM">     4</i>
   <i type="int" name="NBLK">    -1</i>
   <i type="logical" name="LPLANE"> T  </i>
   <i type="logical" name="LSCALAPACK"> T  </i>
   <i type="logical" name="LSCAAWARE"> F  </i>
   <i type="logical" name="LSCALU"> F  </i>
   <i type="logical" name="LASYNC"> F  </i>
   <i type="logical" name="LORBITALREAL"> F  </i>
  </separator>
  <separator name="miscellaneous" >
   <i type="int" name="IDIOT">     3</i>
   <i type="logical" name="LMUSIC"> F  </i>
   <v name="POMASS">     28.08500000</v>
   <v name="DARWINR">      0.00000000</v>
   <v name="DARWINV">      1.00000000</v>
   <i type="logical" name="LCORR"> T  </i>
  </separator>
  <i type="logical" name="GGA_COMPAT"> T  </i>
  <i type="logical" name="LBERRY"> F  </i>
  <i type="int" name="ICORELEVEL">     0</i>
  <i type="logical" name="LDAU"> F  </i>
  <i type="int" name="I_CONSTRAINED_M">     0</i>
  <separator name="electronic exchange-correlation" >
   <i type="string" name="GGA">--</i>
   <i type="int" name="VOSKOWN">     0</i>
   <i type="logical" name="LHFCALC"> F  </i>
   <i type="string" name="PRECFOCK"></i>
   <i type="logical" name="LSYMGRAD"> F  </i>
   <i type="logical" name="LHFONE"> F  </i>
   <i type="logical" name="LRHFCALC"> F  </i>
   <i type="logical" name="LTHOMAS"> F  </i>
   <i type="logical" name="LMODELHF"> F  </i>
   <i name="ENCUT4O">     -1.00000000</i>
   <i type="int" name="EXXOEP">     0</i>
   <i type="int" name="FOURORBIT">     0</i>
   <i name="AEXX">      0.00000000</i>
   <i name="HFALPHA">      0.00000000</i>
   <i name="MCALPHA">      0.00000000</i>
   <i name="ALDAX">      1.00000000</i>
   <i name="AGGAX">      1.00000000</i>
   <i name="ALDAC">      1.00000000</i>
   <i name="AGGAC">      1.00000000</i>
   <i type="int" name="NKREDX">     1</i>
   <i type="int" name="NKREDY">     1</i>
   <i type="int" name="NKREDZ">     1</i>
   <i type="logical" name="SHIFTRED"> F  </i>
   <i type="logical" name="ODDONLY"> F  </i>
   <i type="logical" name="EVENONLY"> F  </i>
   <i type="int" name="LMAXFOCK">     0</i>
   <i type="int" name="NMAXFOCKAE">     0</i>
   <i type="logical" name="LFOCKAEDFT"> F  </i>
   <i name="HFSCREEN">      0.00000000</i>
   <i name="HFSCREENC">      0.00000000</i>
   <i type="int" name="NBANDSGWLOW">     0</i>
  </separator>
  <separator name="vdW DFT" >
   <i type="logical" name="LUSE_VDW"> F  </i>
   <i name="Zab_VDW">     -0.84910000</i>
   <i name="PARAM1">      0.12340000</i>
   <i name="PARAM2">      1.00000000</i>
   <i name="PARAM3">      0.00000000</i>
  </separator>
  <separator name="model GW" >
   <i type="int" name="MODEL_GW">     0</i>
   <i name="MODEL_EPS0">      8.79434430</i>
   <i name="MODEL_ALPHA">      1.00000000</i>
  </separator>
  <separator name="linear response parameters" >
   <i type="logical" name="LEPSILON"> F  </i>
   <i type="logical" name="LRPA"> F  </i>
   <i type="logical" name="LNABLA"> F  </i>
   <i type="logical" name="LVEL"> F  </i>
   <i type="int" name="KINTER">     0</i>
   <i name="CSHIFT">      0.10000000</i>
   <i name="OMEGAMAX">     -1.00000000</i>
   <i name="DEG_THRESHOLD">      0.00200000</i>
  </separator>
  <separator name="orbital magnetization" >
   <i type="logical" name="NUCIND"> F  </i>
   <v name="MAGPOS">      0.00000000      0.00000000      0.00000000</v>
   <i type="logical" name="LNICSALL"> T  </i>
   <i type="logical" name="ORBITALMAG"> F  </i>
   <i type="logical" name="LMAGBLOCH"> F  </i>
   <i type="logical" name="LCHIMAG"> F  </i>
   <i type="logical" name="LGAUGE"> T  </i>
   <i type="int" name="MAGATOM">     0</i>
   <v name="MAGDIPOL">      0.00000000      0.00000000      0.00000000</v>
   <v name="AVECCONST">      0.00000000      0.00000000      0.00000000</v>
  </separator>
  <separator name="response functions" >
   <i type="logical" name="LADDER"> F  </i>
   <i type="logical" name="LFXC"> F  </i>
   <i type="logical" name="LHARTREE"> T  </i>
   <i type="int" name="IBSE">     0</i>
   <v type="int" name="KPOINT">    -1     0     0     0</v>
   <i type="logical" name="LTCTE"> F  </i>
   <i type="logical" name="LTETE"> F  </i>
   <i type="logical" name="LTRIPLET"> F  </i>
   <i type="logical" name="LFXCEPS"> F  </i>
   <i type="logical" name="LFXHEG"> F  </i>
   <i type="int" name="NATURALO">     0</i>
   <i type="logical" name="L2ORDER"> F  </i>
   <i type="logical" name="LUSEW"> F  </i>
   <i name="ENCUTGW">     -2.00000000</i>
   <i name="ENCUTGWSOFT">     -2.00000000</i>
   <i name="ENCUTLF">     -1.00000000</i>
   <i type="int" name="LMAXMP2">    -1</i>
   <i name="SCISSOR">      0.00000000</i>
   <i type="int" name="NOMEGA">     0</i>
   <i type="int" name="NOMEGAR">     0</i>
   <i type="int" name="NBANDSGW">    -1</i>
   <i type="int" name="NBANDSO">    -1</i>
   <i type="int" name="NBANDSV">    -1</i>
   <i type="int" name="NELM">     1</i>
   <i type="int" name="NELMHF">     1</i>
   <i type="int" name="DIM">     3</i>
   <i type="int" name="ANTIRES">     0</i>
   <i name="OMEGAMAX">    -30.00000000</i>
   <i name="OMEGAMIN">    -30.00000000</i>
   <i name="OMEGATL">   -200.00000000</i>
   <i type="int" name="OMEGAGRID">     0</i>
   <i name="CSHIFT">     -0.10000000</i>
   <i type="logical" name="SELFENERGY"> F  </i>
   <i type="logical" name="LSPECTRAL"> F  </i>
   <i type="logical" name="LSPECTRALGW"> F  </i>
   <i type="logical" name="LSINGLES"> F  </i>
   <i type="logical" name="LFERMIGW"> F  </i>
   <i type="logical" name="ODDONLYGW"> F  </i>
   <i type="logical" name="EVENONLYGW"> F  </i>
   <i type="int" name="NKREDLFX">     1</i>
   <i type="int" name="NKREDLFY">     1</i>
   <i type="int" name="NKREDLFZ">     1</i>
   <i type="int" name="MAXMEM">  1800</i>
   <i type="int" name="TELESCOPE">     0</i>
   <i type="int" name="TAUPAR">     1</i>
   <i type="int" name="OMEGAPAR">    -1</i>
   <i name="LAMBDA">      1.00000000</i>
  </separator>
  <separator name="External order field" >
   <i name="OFIELD_KAPPA">      0.00000000</i>
   <v name="OFIELD_K">      0.00000000      0.00000000      0.00000000</v>
   <i name="OFIELD_Q6_NEAR">      0.00000000</i>
   <i name="OFIELD_Q6_FAR">      0.00000000</i>
   <i name="OFIELD_A">      0.00000000</i>
  </separator>
 </parameters>
 <atominfo>
  <atoms>       2 </atoms>
  <types>       1 </types>
  <array name="atoms" >
   <dimension dim="1">ion</dimension>
   <field type="string">element</field>
   <field type="int">atomtype</field>
   <set>
    <rc><c>Si</c><c>   1</c></rc>
    <rc><c>Si</c><c>   1</c></rc>
   </set>
  </array>
  <array name="atomtypes" >
   <dimension dim="1">type</dimension>
   <field type="int">atomspertype</field>
   <field type="string">element</field>
   <field>mass</field>
   <field>valence</field>
   <field type="string">pseudopotential</field>
   <set>
    <rc><c>   2</c><c>Si</c><c>     28.08500000</c><c>      4.00000000</c><c>  PAW_PBE Si 05Jan2001                  </c></rc>
   </set>
  </array>
 </atominfo>
 <structure name="initialpos" >
  <crystal>
   <varray name="basis" >
    <v>       3.08338250       0.00000000       0.00000000 </v>
    <v>       0.00000000       3.08338250       0.00000000 </v>
    <v>       0.00000000       0.00000000       3.08338250 </v>
   </varray>
   <i name="volume">     29.31448100 </i>
   <varray name="rec_basis" >
    <v>       0.32431915       0.00000000       0.00000000 </v>
    <v>       0.00000000       0.32431915       0.00000000 </v>
    <v>       0.00000000       0.00000000       0.32431915 </v>
   </varray>
  </crystal>
  <varray name="positions" >
   <v>       0.00000000       0.00000000       0.00000000 </v>
   <v>       0.50000000       0.50000000       0.50000000 </v>
  </varray>
 </structure>
 <calculation>
  <scstep>
   <time name="dav">    0.38    0.40</time>
   <time name="total">    0.42    0.45</time>
   <energy>
    <i name="alphaZ">      4.59337906 </i>
    <i name="ewald">   -271.93090661 </i>
    <i name="hartreedc">     -1.19133530 </i>
    <i name="XCdc">    -17.68437466 </i>
    <i name="pawpsdc">    176.24759923 </i>
    <i name="pawaedc">   -141.06103558 </i>
    <i name="eentropy">     -0.00109467 </i>
    <i name="bandstr">     46.57617594 </i>
    <i name="atom">    206.13149246 </i>
    <i name="e_fr_energy">      1.67989987 </i>
    <i name="e_wo_entrp">      1.68099453 </i>
    <i name="e_0_energy">      1.68017353 </i>
   </energy>
  </scstep>
  <scstep>
   <time name="dav">    0.53    0.53</time>
   <time name="total">    0.54    0.56</time>
   <energy>
    <i name="e_fr_energy">     -9.71394269 </i>
    <i name="e_wo_entrp">     -9.71404918 </i>
    <i name="e_0_energy">     -9.71396931 </i>
   </energy>
  </scstep>
  <scstep>
   <time name="dav">    0.50    0.51</time>
   <time name="total">    0.51    0.52</time>
   <energy>
    <i name="e_fr_energy">     -9.83400359 </i>
    <i name="e_wo_entrp">     -9.83387315 </i>
    <i name="e_0_energy">     -9.83397098 </i>
   </energy>
  </scstep>
  <scstep>
   <time name="dav">    0.50    0.51</time>
   <time name="total">    0.51    0.53</time>
   <energy>
    <i name="e_fr_energy">     -9.83427059 </i>
    <i name="e_wo_entrp">     -9.83414037 </i>
    <i name="e_0_energy">     -9.83423804 </i>
   </energy>
  </scstep>
  <scstep>
   <time name="dav">    0.50    0.52</time>
   <time name="total">    0.54    0.57</time>
   <energy>
    <i name="e_fr_energy">     -9.83427135 </i>
    <i name="e_wo_entrp">     -9.83414115 </i>
    <i name="e_0_energy">     -9.83423880 </i>
   </energy>
  </scstep>
  <scstep>
   <time name="dav">    0.42    0.43</time>
   <time name="total">    0.45    0.47</time>
   <energy>
    <i name="e_fr_energy">     -9.81294404 </i>
    <i name="e_wo_entrp">     -9.81284440 </i>
    <i name="e_0_energy">     -9.81291913 </i>
   </energy>
  </scstep>
  <scstep>
   <time name="dav">    0.43    0.44</time>
   <time name="total">    0.49    0.48</time>
   <energy>
    <i name="e_fr_energy">     -9.80098331 </i>
    <i name="e_wo_entrp">     -9.80093581 </i>
    <i name="e_0_energy">     -9.80097144 </i>
   </energy>
  </scstep>
  <scstep>
   <time name="dav">    0.50    0.50</time>
   <time name="total">    0.51    0.53</time>
   <energy>
    <i name="alphaZ">      4.59337906 </i>
    <i name="ewald">   -271.93090661 </i>
    <i name="hartreedc">     -0.86963393 </i>
    <i name="XCdc">    -17.57631234 </i>
    <i name="pawpsdc">    587.83608921 </i>
    <i name="pawaedc">   -552.67884760 </i>
    <i name="eentropy">     -0.00004552 </i>
    <i name="bandstr">     34.69385066 </i>
    <i name="atom">    206.13149246 </i>
    <i name="e_fr_energy">     -9.80093461 </i>
    <i name="e_wo_entrp">     -9.80088909 </i>
    <i name="e_0_energy">     -9.80092323 </i>
   </energy>
  </scstep>
  <structure>
   <crystal>
    <varray name="basis" >
     <v>       3.08338250       0.00000000       0.00000000 </v>
     <v>       0.00000000       3.08338250       0.00000000 </v>
     <v>       0.00000000       0.00000000       3.08338250 </v>
    </varray>
    <i name="volume">     29.31448100 </i>
    <varray name="rec_basis" >
     <v>       0.32431915       0.00000000       0.00000000 </v>
     <v>       0.00000000       0.32431915       0.00000000 </v>
     <v>       0.00000000       0.00000000       0.32431915 </v>
    </varray>
   </crystal>
   <varray name="positions" >
    <v>       0.00000000       0.00000000       0.00000000 </v>
    <v>       0.50000000       0.50000000       0.50000000 </v>
   </varray>
  </structure>
  <varray name="forces" >
   <v>       0.00000000       0.00000000       0.00000000 </v>
   <v>       0.00000000       0.00000000       0.00000000 </v>
  </varray>
  <varray name="stress" >
   <v>      -1.66258632       0.00000000       0.00000000 </v>
   <v>       0.00000000      -1.66258632       0.00000000 </v>
   <v>       0.00000000       0.00000000      -1.66258632 </v>
  </varray>
  <energy>
   <i name="e_fr_energy">     -9.80093461 </i>
   <i name="e_wo_entrp">     -9.80092323 </i>
   <i name="e_0_energy">     -0.00004552 </i>
  </energy>
  <time name="totalsc">    4.45    4.63</time>
  <eigenvalues>
   <array>
    <dimension dim="1">band</dimension>
    <dimension dim="2">kpoint</dimension>
    <dimension dim="3">spin</dimension>
    <field>eigene</field>
    <field>occ</field>
    <set>
     <set comment="spin 1">
      <set comment="kpoint 1">
       <r>   -4.2787    1.0000 </r>
       <r>    9.0333    1.0000 </r>
       <r>    9.1590    1.0000 </r>
       <r>    9.1590    1.0000 </r>
       <r>   11.4161    0.0000 </r>
       <r>   12.5600    0.0000 </r>
       <r>   12.5600    0.0000 </r>
       <r>   20.5023    0.0000 </r>
      </set>
      <set comment="kpoint 2">
       <r>   -4.1593    1.0000 </r>
       <r>    7.7541    1.0000 </r>
       <r>    9.1954    1.0000 </r>
       <r>    9.2675    1.0000 </r>
       <r>   11.7804    0.0000 </r>
       <r>   12.6799    0.0000 </r>
       <r>   13.8494    0.0000 </r>
       <r>   19.5772    0.0000 </r>
      </set>
      <set comment="kpoint 3">
       <r>   -3.9207    1.0000 </r>
       <r>    6.2590    1.0000 </r>
       <r>    9.4110    1.0000 </r>
       <r>    9.4842    1.0000 </r>
       <r>   12.0544    0.0000 </r>
       <r>   12.9193    0.0000 </r>
       <r>   15.6724    0.0000 </r>
       <r>   18.4172    0.0000 </r>
      </set>
      <set comment="kpoint 4">
       <r>   -3.5632    1.0000 </r>
       <r>    4.8110    1.0000 </r>
       <r>    9.7354    1.0349 </r>
       <r>    9.8091    0.9356 </r>
       <r>   12.3977    0.0000 </r>
       <r>   13.2783    0.0000 </r>
       <r>   17.2109    0.0000 </r>
       <r>   17.3640    0.0000 </r>
      </set>
      <set comment="kpoint 5">
       <r>   -3.0876    1.0000 </r>
       <r>    3.4487    1.0000 </r>
       <r>   10.1673    0.0002 </r>
       <r>   10.2416    0.0000 </r>
       <r>   12.8364    0.0000 </r>
       <r>   13.7566    0.0000 </r>
       <r>   16.0350    0.0000 </r>
       <r>   16.1611    0.0000 </r>
      </set>
      <set comment="kpoint 6">
       <r>   -2.4945    1.0000 </r>
       <r>    2.1852    1.0000 </r>
       <r>   10.7056    0.0000 </r>
       <r>   10.7813    0.0000 </r>
       <r>   13.3729    0.0000 </r>
       <r>   14.3539    0.0000 </r>
       <r>   14.9210    0.0000 </r>
       <r>   15.0294    0.0000 </r>
      </set>
      <set comment="kpoint 7">
       <r>   -1.7851    1.0000 </r>
       <r>    1.0268    1.0000 </r>
       <r>   11.3491    0.0000 </r>
       <r>   11.4271    0.0000 </r>
       <r>   13.8870    0.0000 </r>
       <r>   13.9830    0.0000 </r>
       <r>   14.0042    0.0000 </r>
       <r>   15.0698    0.0000 </r>
      </set>
      <set comment="kpoint 8">
       <r>   -0.9607    1.0000 </r>
       <r>   -0.0227    1.0000 </r>
       <r>   12.0958    0.0000 </r>
       <r>   12.1776    0.0000 </r>
       <r>   12.9432    0.0000 </r>
       <r>   13.0307    0.0000 </r>
       <r>   14.7247    0.0000 </r>
       <r>   15.5265    0.0000 </r>
      </set>
      <set comment="kpoint 9">
       <r>   -4.0400    1.0000 </r>
       <r>    7.7544    1.0000 </r>
       <r>    7.9916    1.0000 </r>
       <r>    9.3442    1.0000 </r>
       <r>   12.2094    0.0000 </r>
       <r>   13.6890    0.0000 </r>
       <r>   14.1757    0.0000 </r>
       <r>   18.6054    0.0000 </r>
      </set>
      <set comment="kpoint 10">
       <r>   -3.8015    1.0000 </r>
       <r>    6.3670    1.0000 </r>
       <r>    8.1067    1.0000 </r>
       <r>    9.5606    0.9997 </r>
       <r>   12.4873    0.0000 </r>
       <r>   14.1046    0.0000 </r>
       <r>   15.8088    0.0000 </r>
       <r>   17.3758    0.0000 </r>
      </set>
      <set comment="kpoint 11">
       <r>   -3.4442    1.0000 </r>
       <r>    4.9234    1.0000 </r>
       <r>    8.4359    1.0000 </r>
       <r>    9.8852    0.2331 </r>
       <r>   12.8359    0.0000 </r>
       <r>   14.4621    0.0000 </r>
       <r>   16.1176    0.0000 </r>
       <r>   17.3675    0.0000 </r>
      </set>
      <set comment="kpoint 12">
       <r>   -2.9689    1.0000 </r>
       <r>    3.5628    1.0000 </r>
       <r>    8.8777    1.0000 </r>
       <r>   10.3173    0.0000 </r>
       <r>   13.2830    0.0000 </r>
       <r>   14.8999    0.0000 </r>
       <r>   14.9210    0.0000 </r>
       <r>   16.1984    0.0000 </r>
      </set>
      <set comment="kpoint 13">
       <r>   -2.3762    1.0000 </r>
       <r>    2.3004    1.0000 </r>
       <r>    9.4291    1.0000 </r>
       <r>   10.8562    0.0000 </r>
       <r>   13.7524    0.0000 </r>
       <r>   13.8309    0.0000 </r>
       <r>   15.0829    0.0000 </r>
       <r>   15.4893    0.0000 </r>
      </set>
      <set comment="kpoint 14">
       <r>   -1.6672    1.0000 </r>
       <r>    1.1429    1.0000 </r>
       <r>   10.0883    0.0035 </r>
       <r>   11.5007    0.0000 </r>
       <r>   12.6902    0.0000 </r>
       <r>   14.0456    0.0000 </r>
       <r>   14.4763    0.0000 </r>
       <r>   16.1675    0.0000 </r>
      </set>
      <set comment="kpoint 15">
       <r>   -0.8433    1.0000 </r>
       <r>    0.0941    1.0000 </r>
       <r>   10.8535    0.0000 </r>
       <r>   11.7220    0.0000 </r>
       <r>   12.2491    0.0000 </r>
       <r>   13.0987    0.0000 </r>
       <r>   15.2126    0.0000 </r>
       <r>   16.0300    0.0000 </r>
      </set>
      <set comment="kpoint 16">
       <r>   -3.5633    1.0000 </r>
       <r>    6.4579    1.0000 </r>
       <r>    6.7495    1.0000 </r>
       <r>    9.7767    1.0436 </r>
       <r>   12.7644    0.0000 </r>
       <r>   15.6396    0.0000 </r>
       <r>   16.0795    0.0000 </r>
       <r>   16.3107    0.0000 </r>
      </set>
      <set comment="kpoint 17">
       <r>   -3.2064    1.0000 </r>
       <r>    5.1444    1.0000 </r>
       <r>    6.9554    1.0000 </r>
       <r>   10.1010    0.0026 </r>
       <r>   13.1145    0.0000 </r>
       <r>   14.7763    0.0000 </r>
       <r>   16.2176    0.0000 </r>
       <r>   17.4180    0.0000 </r>
      </set>
      <set comment="kpoint 18">
       <r>   -2.7317    1.0000 </r>
       <r>    3.7901    1.0000 </r>
       <r>    7.3993    1.0000 </r>
       <r>   10.5326    0.0000 </r>
       <r>   13.5259    0.0000 </r>
       <r>   13.5650    0.0000 </r>
       <r>   16.3489    0.0000 </r>
       <r>   16.6792    0.0000 </r>
      </set>
      <set comment="kpoint 19">
       <r>   -2.1397    1.0000 </r>
       <r>    2.5305    1.0000 </r>
       <r>    7.9577    1.0000 </r>
       <r>   11.0707    0.0000 </r>
       <r>   12.3532    0.0000 </r>
       <r>   14.1179    0.0000 </r>
       <r>   15.2681    0.0000 </r>
       <r>   17.2247    0.0000 </r>
      </set>
      <set comment="kpoint 20">
       <r>   -1.4316    1.0000 </r>
       <r>    1.3748    1.0000 </r>
       <r>    8.6264    1.0000 </r>
       <r>   11.2707    0.0000 </r>
       <r>   11.7139    0.0000 </r>
       <r>   14.2457    0.0000 </r>
       <r>   14.7702    0.0000 </r>
       <r>   17.2304    0.0000 </r>
      </set>
      <set comment="kpoint 21">
       <r>   -0.6087    1.0000 </r>
       <r>    0.3275    1.0000 </r>
       <r>    9.4033    1.0000 </r>
       <r>   10.2858    0.0000 </r>
       <r>   12.4601    0.0000 </r>
       <r>   13.3059    0.0000 </r>
       <r>   15.5152    0.0000 </r>
       <r>   16.3419    0.0000 </r>
      </set>
      <set comment="kpoint 22">
       <r>   -2.8503    1.0000 </r>
       <r>    5.3359    1.0000 </r>
       <r>    5.6634    1.0000 </r>
       <r>   10.4248    0.0000 </r>
       <r>   13.4411    0.0000 </r>
       <r>   13.4645    0.0000 </r>
       <r>   17.2310    0.0000 </r>
       <r>   17.8215    0.0000 </r>
      </set>
      <set comment="kpoint 23">
       <r>   -2.3764    1.0000 </r>
       <r>    4.1259    1.0000 </r>
       <r>    5.9702    1.0000 </r>
       <r>   10.8555    0.0000 </r>
       <r>   12.1669    0.0000 </r>
       <r>   13.9137    0.0000 </r>
       <r>   16.5054    0.0000 </r>
       <r>   18.5650    0.0000 </r>
      </set>
      <set comment="kpoint 24">
       <r>   -1.7855    1.0000 </r>
       <r>    2.8739    1.0000 </r>
       <r>    6.5292    1.0000 </r>
       <r>   10.9757    0.0000 </r>
       <r>   11.3922    0.0000 </r>
       <r>   14.4647    0.0000 </r>
       <r>   15.5261    0.0000 </r>
       <r>   18.2875    0.0000 </r>
      </set>
      <set comment="kpoint 25">
       <r>   -1.0787    1.0000 </r>
       <r>    1.7217    1.0000 </r>
       <r>    7.2038    1.0000 </r>
       <r>    9.8784    0.2964 </r>
       <r>   12.0330    0.0000 </r>
       <r>   14.5386    0.0000 </r>
       <r>   15.1138    0.0000 </r>
       <r>   17.5177    0.0000 </r>
      </set>
      <set comment="kpoint 26">
       <r>   -0.2574    1.0000 </r>
       <r>    0.6769    1.0000 </r>
       <r>    7.9888    1.0000 </r>
       <r>    8.8813    1.0000 </r>
       <r>   12.7753    0.0000 </r>
       <r>   13.6138    0.0000 </r>
       <r>   15.8530    0.0000 </r>
       <r>   16.6664    0.0000 </r>
      </set>
      <set comment="kpoint 27">
       <r>   -1.9036    1.0000 </r>
       <r>    4.4215    1.0000 </r>
       <r>    4.7790    1.0000 </r>
       <r>   10.8749    0.0000 </r>
       <r>   11.2849    0.0000 </r>
       <r>   14.3596    0.0000 </r>
       <r>   16.4252    0.0000 </r>
       <r>   18.0984    0.0000 </r>
      </set>
      <set comment="kpoint 28">
       <r>   -1.3142    1.0000 </r>
       <r>    3.3254    1.0000 </r>
       <r>    5.1899    1.0000 </r>
       <r>    9.6695    0.9957 </r>
       <r>   11.8192    0.0000 </r>
       <r>   14.9049    0.0000 </r>
       <r>   15.7929    0.0000 </r>
       <r>   17.9907    0.0000 </r>
      </set>
      <set comment="kpoint 29">
       <r>   -0.6092    1.0000 </r>
       <r>    2.1821    1.0000 </r>
       <r>    5.8641    1.0000 </r>
       <r>    8.5607    1.0000 </r>
       <r>   12.4560    0.0000 </r>
       <r>   14.9053    0.0000 </r>
       <r>   15.5444    0.0000 </r>
       <r>   17.7369    0.0000 </r>
      </set>
      <set comment="kpoint 30">
       <r>    0.2099    1.0000 </r>
       <r>    1.1413    1.0000 </r>
       <r>    6.6543    1.0000 </r>
       <r>    7.5543    1.0000 </r>
       <r>   13.1910    0.0000 </r>
       <r>   14.0148    0.0000 </r>
       <r>   16.2653    0.0000 </r>
       <r>   17.0356    0.0000 </r>
      </set>
      <set comment="kpoint 31">
       <r>   -0.7266    1.0000 </r>
       <r>    3.7278    1.0000 </r>
       <r>    4.1102    1.0000 </r>
       <r>    8.4529    1.0000 </r>
       <r>   12.3495    0.0000 </r>
       <r>   15.4398    0.0000 </r>
       <r>   15.8210    0.0000 </r>
       <r>   17.4939    0.0000 </r>
      </set>
      <set comment="kpoint 32">
       <r>   -0.0241    1.0000 </r>
       <r>    2.7498    1.0000 </r>
       <r>    4.6274    1.0000 </r>
       <r>    7.3350    1.0000 </r>
       <r>   12.9791    0.0000 </r>
       <r>   15.2825    0.0000 </r>
       <r>   16.0598    0.0000 </r>
       <r>   17.4982    0.0000 </r>
      </set>
      <set comment="kpoint 33">
       <r>    0.7920    1.0000 </r>
       <r>    1.7189    1.0000 </r>
       <r>    5.4165    1.0000 </r>
       <r>    6.3214    1.0000 </r>
       <r>   13.6995    0.0000 </r>
       <r>   14.4899    0.0000 </r>
       <r>   16.7365    0.0000 </r>
       <r>   17.3537    0.0000 </r>
      </set>
      <set comment="kpoint 34">
       <r>    0.6754    1.0000 </r>
       <r>    3.2621    1.0000 </r>
       <r>    3.6626    1.0000 </r>
       <r>    6.2100    1.0000 </r>
       <r>   13.5943    0.0000 </r>
       <r>   15.4183    0.0000 </r>
       <r>   16.6355    0.0000 </r>
       <r>   17.0789    0.0000 </r>
      </set>
      <set comment="kpoint 35">
       <r>    1.4867    1.0000 </r>
       <r>    2.4030    1.0000 </r>
       <r>    4.2883    1.0000 </r>
       <r>    5.1917    1.0000 </r>
       <r>   14.2818    0.0000 </r>
       <r>   14.9758    0.0000 </r>
       <r>   17.1583    0.0000 </r>
       <r>   17.1957    0.0000 </r>
      </set>
      <set comment="kpoint 36">
       <r>    2.2872    1.0000 </r>
       <r>    3.0283    1.0000 </r>
       <r>    3.4383    1.0000 </r>
       <r>    4.1751    1.0000 </r>
       <r>   14.8735    0.0000 </r>
       <r>   15.2170    0.0000 </r>
       <r>   16.8683    0.0000 </r>
       <r>   17.0939    0.0000 </r>
      </set>
      <set comment="kpoint 37">
       <r>   -3.9207    1.0000 </r>
       <r>    7.7656    1.0000 </r>
       <r>    8.1028    1.0000 </r>
       <r>    8.1028    1.0000 </r>
       <r>   13.2449    0.0000 </r>
       <r>   14.2921    0.0000 </r>
       <r>   14.2921    0.0000 </r>
       <r>   18.1780    0.0000 </r>
      </set>
      <set comment="kpoint 38">
       <r>   -3.6823    1.0000 </r>
       <r>    6.4746    1.0000 </r>
       <r>    8.1224    1.0000 </r>
       <r>    8.3251    1.0000 </r>
       <r>   13.6793    0.0000 </r>
       <r>   14.5250    0.0000 </r>
       <r>   15.9413    0.0000 </r>
       <r>   17.1695    0.0000 </r>
      </set>
      <set comment="kpoint 39">
       <r>   -3.3253    1.0000 </r>
       <r>    5.0356    1.0000 </r>
       <r>    8.4472    1.0000 </r>
       <r>    8.6585    1.0000 </r>
       <r>   14.0359    0.0000 </r>
       <r>   14.8741    0.0000 </r>
       <r>   15.9975    0.0000 </r>
       <r>   16.4768    0.0000 </r>
      </set>
      <set comment="kpoint 40">
       <r>   -2.8502    1.0000 </r>
       <r>    3.6769    1.0000 </r>
       <r>    8.8869    1.0000 </r>
       <r>    9.1024    1.0000 </r>
       <r>   14.4651    0.0000 </r>
       <r>   14.8261    0.0000 </r>
       <r>   15.2140    0.0000 </r>
       <r>   15.3389    0.0000 </r>
      </set>
      <set comment="kpoint 41">
       <r>   -2.2579    1.0000 </r>
       <r>    2.4156    1.0000 </r>
       <r>    9.4357    1.0000 </r>
       <r>    9.6564    0.9951 </r>
       <r>   13.7072    0.0000 </r>
       <r>   14.0360    0.0000 </r>
       <r>   14.9822    0.0000 </r>
       <r>   15.9187    0.0000 </r>
      </set>
      <set comment="kpoint 42">
       <r>   -1.5494    1.0000 </r>
       <r>    1.2589    1.0000 </r>
       <r>   10.0909    0.0033 </r>
       <r>   10.3197    0.0000 </r>
       <r>   12.6643    0.0000 </r>
       <r>   12.9527    0.0000 </r>
       <r>   15.5854    0.0000 </r>
       <r>   16.6122    0.0000 </r>
      </set>
      <set comment="kpoint 43">
       <r>   -0.7259    1.0000 </r>
       <r>    0.2109    1.0000 </r>
       <r>   10.8501    0.0000 </r>
       <r>   11.0915    0.0000 </r>
       <r>   11.7095    0.0000 </r>
       <r>   11.9699    0.0000 </r>
       <r>   16.2664    0.0000 </r>
       <r>   17.0099    0.0000 </r>
      </set>
      <set comment="kpoint 44">
       <r>   -3.4443    1.0000 </r>
       <r>    6.5629    1.0000 </r>
       <r>    6.8619    1.0000 </r>
       <r>    8.4540    1.0000 </r>
       <r>   14.1884    0.0000 </r>
       <r>   15.8354    0.0000 </r>
       <r>   16.1140    0.0000 </r>
       <r>   16.4251    0.0000 </r>
      </set>
      <set comment="kpoint 45">
       <r>   -3.0877    1.0000 </r>
       <r>    5.2566    1.0000 </r>
       <r>    7.0642    1.0000 </r>
       <r>    8.7838    1.0000 </r>
       <r>   14.5518    0.0000 </r>
       <r>   14.8522    0.0000 </r>
       <r>   16.3816    0.0000 </r>
       <r>   16.4346    0.0000 </r>
      </set>
      <set comment="kpoint 46">
       <r>   -2.6132    1.0000 </r>
       <r>    3.9041    1.0000 </r>
       <r>    7.5075    1.0000 </r>
       <r>    9.2255    1.0000 </r>
       <r>   13.6168    0.0000 </r>
       <r>   14.9876    0.0000 </r>
       <r>   15.2429    0.0000 </r>
       <r>   16.8419    0.0000 </r>
      </set>
      <set comment="kpoint 47">
       <r>   -2.0215    1.0000 </r>
       <r>    2.6456    1.0000 </r>
       <r>    8.0653    1.0000 </r>
       <r>    9.7766    1.0437 </r>
       <r>   12.4512    0.0000 </r>
       <r>   14.0999    0.0000 </r>
       <r>   15.5120    0.0000 </r>
       <r>   17.3915    0.0000 </r>
      </set>
      <set comment="kpoint 48">
       <r>   -1.3139    1.0000 </r>
       <r>    1.4907    1.0000 </r>
       <r>    8.7334    1.0000 </r>
       <r>   10.4357    0.0000 </r>
       <r>   11.3727    0.0000 </r>
       <r>   13.0381    0.0000 </r>
       <r>   16.1203    0.0000 </r>
       <r>   18.0380    0.0000 </r>
      </set>
      <set comment="kpoint 49">
       <r>   -0.4914    1.0000 </r>
       <r>    0.4441    1.0000 </r>
       <r>    9.5093    1.0000 </r>
       <r>   10.3902    0.0000 </r>
       <r>   11.2009    0.0000 </r>
       <r>   12.0697    0.0000 </r>
       <r>   16.7964    0.0000 </r>
       <r>   17.5023    0.0000 </r>
      </set>
      <set comment="kpoint 50">
       <r>   -2.7317    1.0000 </r>
       <r>    5.4475    1.0000 </r>
       <r>    5.7763    1.0000 </r>
       <r>    9.1127    1.0000 </r>
       <r>   13.5376    0.0000 </r>
       <r>   14.9149    0.0000 </r>
       <r>   16.3664    0.0000 </r>
       <r>   17.2982    0.0000 </r>
      </set>
      <set comment="kpoint 51">
       <r>   -2.2580    1.0000 </r>
       <r>    4.2398    1.0000 </r>
       <r>    6.0823    1.0000 </r>
       <r>    9.5534    0.9998 </r>
       <r>   12.2704    0.0000 </r>
       <r>   15.3492    0.0000 </r>
       <r>   15.4807    0.0000 </r>
       <r>   17.3292    0.0000 </r>
      </set>
      <set comment="kpoint 52">
       <r>   -1.6675    1.0000 </r>
       <r>    2.9889    1.0000 </r>
       <r>    6.6409    1.0000 </r>
       <r>   10.1032    0.0024 </r>
       <r>   11.0824    0.0000 </r>
       <r>   14.3897    0.0000 </r>
       <r>   15.8696    0.0000 </r>
       <r>   17.6575    0.0000 </r>
      </set>
      <set comment="kpoint 53">
       <r>   -0.9611    1.0000 </r>
       <r>    1.8376    1.0000 </r>
       <r>    7.3151    1.0000 </r>
       <r>    9.9870   -0.0297 </r>
       <r>   10.7603    0.0000 </r>
       <r>   13.3460    0.0000 </r>
       <r>   16.4659    0.0000 </r>
       <r>   17.8851    0.0000 </r>
      </set>
      <set comment="kpoint 54">
       <r>   -0.1403    1.0000 </r>
       <r>    0.7934    1.0000 </r>
       <r>    8.0994    1.0000 </r>
       <r>    8.9911    1.0000 </r>
       <r>   11.5224    0.0000 </r>
       <r>   12.3863    0.0000 </r>
       <r>   17.1037    0.0000 </r>
       <r>   17.6730    0.0000 </r>
      </set>
      <set comment="kpoint 55">
       <r>   -1.7855    1.0000 </r>
       <r>    4.5355    1.0000 </r>
       <r>    4.8922    1.0000 </r>
       <r>    9.9927   -0.0242 </r>
       <r>   10.9825    0.0000 </r>
       <r>   15.5319    0.0000 </r>
       <r>   15.7757    0.0000 </r>
       <r>   16.5002    0.0000 </r>
      </set>
      <set comment="kpoint 56">
       <r>   -1.1964    1.0000 </r>
       <r>    3.4403    1.0000 </r>
       <r>    5.3031    1.0000 </r>
       <r>    9.7792    1.0403 </r>
       <r>   10.5406    0.0000 </r>
       <r>   14.7465    0.0000 </r>
       <r>   16.2778    0.0000 </r>
       <r>   16.6310    0.0000 </r>
      </set>
      <set comment="kpoint 57">
       <r>   -0.4919    1.0000 </r>
       <r>    2.2977    1.0000 </r>
       <r>    5.9770    1.0000 </r>
       <r>    8.6716    1.0000 </r>
       <r>   11.1949    0.0000 </r>
       <r>   13.7519    0.0000 </r>
       <r>   16.8277    0.0000 </r>
       <r>   17.0792    0.0000 </r>
      </set>
      <set comment="kpoint 58">
       <r>    0.3267    1.0000 </r>
       <r>    1.2576    1.0000 </r>
       <r>    6.7667    1.0000 </r>
       <r>    7.6661    1.0000 </r>
       <r>   11.9526    0.0000 </r>
       <r>   12.8086    0.0000 </r>
       <r>   17.3182    0.0000 </r>
       <r>   17.4337    0.0000 </r>
      </set>
      <set comment="kpoint 59">
       <r>   -0.6092    1.0000 </r>
       <r>    3.8433    1.0000 </r>
       <r>    4.2237    1.0000 </r>
       <r>    8.5641    1.0000 </r>
       <r>   11.0857    0.0000 </r>
       <r>   14.9105    0.0000 </r>
       <r>   15.8800    0.0000 </r>
       <r>   16.7321    0.0000 </r>
      </set>
      <set comment="kpoint 60">
       <r>    0.0930    1.0000 </r>
       <r>    2.8653    1.0000 </r>
       <r>    4.7413    1.0000 </r>
       <r>    7.4473    1.0000 </r>
       <r>   11.7355    0.0000 </r>
       <r>   14.2213    0.0000 </r>
       <r>   16.1202    0.0000 </r>
       <r>   17.1323    0.0000 </r>
      </set>
      <set comment="kpoint 61">
       <r>    0.9086    1.0000 </r>
       <r>    1.8349    1.0000 </r>
       <r>    5.5300    1.0000 </r>
       <r>    6.4344    1.0000 </r>
       <r>   12.4856    0.0000 </r>
       <r>   13.3256    0.0000 </r>
       <r>   16.6838    0.0000 </r>
       <r>   17.1526    0.0000 </r>
      </set>
      <set comment="kpoint 62">
       <r>    0.7920    1.0000 </r>
       <r>    3.3783    1.0000 </r>
       <r>    3.7761    1.0000 </r>
       <r>    6.3232    1.0000 </r>
       <r>   12.3777    0.0000 </r>
       <r>   14.4967    0.0000 </r>
       <r>   15.4585    0.0000 </r>
       <r>   17.0575    0.0000 </r>
      </set>
      <set comment="kpoint 63">
       <r>    1.6029    1.0000 </r>
       <r>    2.5189    1.0000 </r>
       <r>    4.4025    1.0000 </r>
       <r>    5.3054    1.0000 </r>
       <r>   13.1120    0.0000 </r>
       <r>   13.9055    0.0000 </r>
       <r>   15.8096    0.0000 </r>
       <r>   16.4836    0.0000 </r>
      </set>
      <set comment="kpoint 64">
       <r>    2.4032    1.0000 </r>
       <r>    3.1449    1.0000 </r>
       <r>    3.5519    1.0000 </r>
       <r>    4.2893    1.0000 </r>
       <r>   13.8001    0.0000 </r>
       <r>   14.2897    0.0000 </r>
       <r>   15.2457    0.0000 </r>
       <r>   15.7055    0.0000 </r>
      </set>
      <set comment="kpoint 65">
       <r>   -3.2065    1.0000 </r>
       <r>    6.6678    1.0000 </r>
       <r>    7.0867    1.0000 </r>
       <r>    7.0867    1.0000 </r>
       <r>   15.4300    0.0000 </r>
       <r>   15.8275    0.0000 </r>
       <r>   16.6535    0.0000 </r>
       <r>   16.6535    0.0000 </r>
      </set>
      <set comment="kpoint 66">
       <r>   -2.8503    1.0000 </r>
       <r>    5.4770    1.0000 </r>
       <r>    7.1728    1.0000 </r>
       <r>    7.4237    1.0000 </r>
       <r>   14.7882    0.0000 </r>
       <r>   15.3896    0.0000 </r>
       <r>   15.9504    0.0000 </r>
       <r>   16.8714    0.0000 </r>
      </set>
      <set comment="kpoint 67">
       <r>   -2.3763    1.0000 </r>
       <r>    4.1311    1.0000 </r>
       <r>    7.6098    1.0000 </r>
       <r>    7.8728    1.0000 </r>
       <r>   13.6206    0.0000 </r>
       <r>   14.0888    0.0000 </r>
       <r>   16.3792    0.0000 </r>
       <r>   17.2007    0.0000 </r>
      </set>
      <set comment="kpoint 68">
       <r>   -1.7854    1.0000 </r>
       <r>    2.8753    1.0000 </r>
       <r>    8.1644    1.0000 </r>
       <r>    8.4335    1.0000 </r>
       <r>   12.4916    0.0000 </r>
       <r>   12.8831    0.0000 </r>
       <r>   16.8486    0.0000 </r>
       <r>   17.6002    0.0000 </r>
      </set>
      <set comment="kpoint 69">
       <r>   -1.0786    1.0000 </r>
       <r>    1.7223    1.0000 </r>
       <r>    8.8284    1.0000 </r>
       <r>    9.1054    1.0000 </r>
       <r>   11.4361    0.0000 </r>
       <r>   11.7786    0.0000 </r>
       <r>   17.3504    0.0000 </r>
       <r>   17.9620    0.0000 </r>
      </set>
      <set comment="kpoint 70">
       <r>   -0.2572    1.0000 </r>
       <r>    0.6772    1.0000 </r>
       <r>    9.5979    0.9985 </r>
       <r>    9.8877    0.2112 </r>
       <r>   10.4688    0.0000 </r>
       <r>   10.7793    0.0000 </r>
       <r>   17.8174    0.0000 </r>
       <r>   18.0791    0.0000 </r>
      </set>
      <set comment="kpoint 71">
       <r>   -2.4947    1.0000 </r>
       <r>    5.6652    1.0000 </r>
       <r>    6.0023    1.0000 </r>
       <r>    7.6445    1.0000 </r>
       <r>   13.7063    0.0000 </r>
       <r>   15.2133    0.0000 </r>
       <r>   15.8001    0.0000 </r>
       <r>   16.5486    0.0000 </r>
      </set>
      <set comment="kpoint 72">
       <r>   -2.0216    1.0000 </r>
       <r>    4.4665    1.0000 </r>
       <r>    6.3038    1.0000 </r>
       <r>    8.0883    1.0000 </r>
       <r>   12.4671    0.0000 </r>
       <r>   14.1816    0.0000 </r>
       <r>   15.9513    0.0000 </r>
       <r>   16.9718    0.0000 </r>
      </set>
      <set comment="kpoint 73">
       <r>   -1.4318    1.0000 </r>
       <r>    3.2184    1.0000 </r>
       <r>    6.8614    1.0000 </r>
       <r>    8.6455    1.0000 </r>
       <r>   11.2896    0.0000 </r>
       <r>   13.0274    0.0000 </r>
       <r>   16.4090    0.0000 </r>
       <r>   17.3982    0.0000 </r>
      </set>
      <set comment="kpoint 74">
       <r>   -0.7262    1.0000 </r>
       <r>    2.0689    1.0000 </r>
       <r>    7.5345    1.0000 </r>
       <r>    9.3128    1.0000 </r>
       <r>   10.1996    0.0000 </r>
       <r>   11.9503    0.0000 </r>
       <r>   16.9458    0.0000 </r>
       <r>   17.7575    0.0000 </r>
      </set>
      <set comment="kpoint 75">
       <r>    0.0936    1.0000 </r>
       <r>    1.0261    1.0000 </r>
       <r>    8.3174    1.0000 </r>
       <r>    9.2070    1.0000 </r>
       <r>   10.0878    0.0036 </r>
       <r>   10.9682    0.0000 </r>
       <r>   17.4792    0.0000 </r>
       <r>   17.8257    0.0000 </r>
      </set>
      <set comment="kpoint 76">
       <r>   -1.5496    1.0000 </r>
       <r>    4.7622    1.0000 </r>
       <r>    5.1188    1.0000 </r>
       <r>    8.5306    1.0000 </r>
       <r>   11.1946    0.0000 </r>
       <r>   14.3216    0.0000 </r>
       <r>   14.9774    0.0000 </r>
       <r>   17.3529    0.0000 </r>
      </set>
      <set comment="kpoint 77">
       <r>   -0.9612    1.0000 </r>
       <r>    3.6695    1.0000 </r>
       <r>    5.5290    1.0000 </r>
       <r>    9.0861    1.0000 </r>
       <r>    9.9969   -0.0204 </r>
       <r>   13.4180    0.0000 </r>
       <r>   15.2278    0.0000 </r>
       <r>   17.6432    0.0000 </r>
      </set>
      <set comment="kpoint 78">
       <r>   -0.2575    1.0000 </r>
       <r>    2.5287    1.0000 </r>
       <r>    6.2021    1.0000 </r>
       <r>    8.8924    1.0000 </r>
       <r>    9.7509    1.0476 </r>
       <r>   12.3689    0.0000 </r>
       <r>   15.8018    0.0000 </r>
       <r>   17.6096    0.0000 </r>
      </set>
      <set comment="kpoint 79">
       <r>    0.5602    1.0000 </r>
       <r>    1.4899    1.0000 </r>
       <r>    6.9908    1.0000 </r>
       <r>    7.8888    1.0000 </r>
       <r>   10.5224    0.0000 </r>
       <r>   11.3972    0.0000 </r>
       <r>   16.4597    0.0000 </r>
       <r>   17.1242    0.0000 </r>
      </set>
      <set comment="kpoint 80">
       <r>   -0.3746    1.0000 </r>
       <r>    4.0735    1.0000 </r>
       <r>    4.4506    1.0000 </r>
       <r>    8.7858    1.0000 </r>
       <r>    9.6393    0.9957 </r>
       <r>   13.6799    0.0000 </r>
       <r>   14.3436    0.0000 </r>
       <r>   17.5305    0.0000 </r>
      </set>
      <set comment="kpoint 81">
       <r>    0.3268    1.0000 </r>
       <r>    3.0960    1.0000 </r>
       <r>    4.9687    1.0000 </r>
       <r>    7.6712    1.0000 </r>
       <r>   10.3009    0.0000 </r>
       <r>   12.8790    0.0000 </r>
       <r>   14.7040    0.0000 </r>
       <r>   16.9397    0.0000 </r>
      </set>
      <set comment="kpoint 82">
       <r>    1.1415    1.0000 </r>
       <r>    2.0668    1.0000 </r>
       <r>    5.7566    1.0000 </r>
       <r>    6.6599    1.0000 </r>
       <r>   11.0674    0.0000 </r>
       <r>   11.9330    0.0000 </r>
       <r>   15.3910    0.0000 </r>
       <r>   16.1620    0.0000 </r>
      </set>
      <set comment="kpoint 83">
       <r>    1.0252    1.0000 </r>
       <r>    3.6104    1.0000 </r>
       <r>    4.0032    1.0000 </r>
       <r>    6.5490    1.0000 </r>
       <r>   10.9575    0.0000 </r>
       <r>   13.2548    0.0000 </r>
       <r>   13.9151    0.0000 </r>
       <r>   16.0620    0.0000 </r>
      </set>
      <set comment="kpoint 84">
       <r>    1.8352    1.0000 </r>
       <r>    2.7503    1.0000 </r>
       <r>    4.6306    1.0000 </r>
       <r>    5.5326    1.0000 </r>
       <r>   11.7150    0.0000 </r>
       <r>   12.5557    0.0000 </r>
       <r>   14.3870    0.0000 </r>
       <r>   15.1839    0.0000 </r>
      </set>
      <set comment="kpoint 85">
       <r>    2.6349    1.0000 </r>
       <r>    3.3778    1.0000 </r>
       <r>    3.7790    1.0000 </r>
       <r>    4.5176    1.0000 </r>
       <r>   12.4479    0.0000 </r>
       <r>   13.0424    0.0000 </r>
       <r>   13.6993    0.0000 </r>
       <r>   14.2809    0.0000 </r>
      </set>
      <set comment="kpoint 86">
       <r>   -2.1398    1.0000 </r>
       <r>    5.8744    1.0000 </r>
       <r>    6.3411    1.0000 </r>
       <r>    6.3411    1.0000 </r>
       <r>   13.5985    0.0000 </r>
       <r>   14.3845    0.0000 </r>
       <r>   14.3845    0.0000 </r>
       <r>   17.6312    0.0000 </r>
      </set>
      <set comment="kpoint 87">
       <r>   -1.6675    1.0000 </r>
       <r>    4.8013    1.0000 </r>
       <r>    6.5160    1.0000 </r>
       <r>    6.7926    1.0000 </r>
       <r>   12.5629    0.0000 </r>
       <r>   13.0630    0.0000 </r>
       <r>   14.6178    0.0000 </r>
       <r>   18.0270    0.0000 </r>
      </set>
      <set comment="kpoint 88">
       <r>   -1.0787    1.0000 </r>
       <r>    3.5611    1.0000 </r>
       <r>    7.0662    1.0000 </r>
       <r>    7.3566    1.0000 </r>
       <r>   11.4341    0.0000 </r>
       <r>   11.8423    0.0000 </r>
       <r>   15.1085    0.0000 </r>
       <r>   18.0763    0.0000 </r>
      </set>
      <set comment="kpoint 89">
       <r>   -0.3744    1.0000 </r>
       <r>    2.4150    1.0000 </r>
       <r>    7.7350    1.0000 </r>
       <r>    8.0327    1.0000 </r>
       <r>   10.3695    0.0000 </r>
       <r>   10.7266    0.0000 </r>
       <r>   15.7075    0.0000 </r>
       <r>   17.7242    0.0000 </r>
      </set>
      <set comment="kpoint 90">
       <r>    0.4439    1.0000 </r>
       <r>    1.3746    1.0000 </r>
       <r>    8.5122    1.0000 </r>
       <r>    8.8203    1.0000 </r>
       <r>    9.3923    1.0000 </r>
       <r>    9.7187    1.0191 </r>
       <r>   16.3833    0.0000 </r>
       <r>   17.0906    0.0000 </r>
      </set>
      <set comment="kpoint 91">
       <r>   -1.1963    1.0000 </r>
       <r>    5.0946    1.0000 </r>
       <r>    5.4585    1.0000 </r>
       <r>    7.1164    1.0000 </r>
       <r>   11.4943    0.0000 </r>
       <r>   13.0796    0.0000 </r>
       <r>   13.5452    0.0000 </r>
       <r>   18.1214    0.0000 </r>
      </set>
      <set comment="kpoint 92">
       <r>   -0.6089    1.0000 </r>
       <r>    4.0117    1.0000 </r>
       <r>    5.8642    1.0000 </r>
       <r>    7.6741    1.0000 </r>
       <r>   10.3149    0.0000 </r>
       <r>   12.0841    0.0000 </r>
       <r>   13.8675    0.0000 </r>
       <r>   17.6151    0.0000 </r>
      </set>
      <set comment="kpoint 93">
       <r>    0.0936    1.0000 </r>
       <r>    2.8743    1.0000 </r>
       <r>    6.5357    1.0000 </r>
       <r>    8.3455    1.0000 </r>
       <r>    9.2176    1.0000 </r>
       <r>   11.0034    0.0000 </r>
       <r>   14.4812    0.0000 </r>
       <r>   16.8309    0.0000 </r>
      </set>
      <set comment="kpoint 94">
       <r>    0.9099    1.0000 </r>
       <r>    1.8378    1.0000 </r>
       <r>    7.3226    1.0000 </r>
       <r>    8.2180    1.0000 </r>
       <r>    9.1264    1.0000 </r>
       <r>   10.0138   -0.0074 </r>
       <r>   15.1987    0.0000 </r>
       <r>   15.9946    0.0000 </r>
      </set>
      <set comment="kpoint 95">
       <r>   -0.0233    1.0000 </r>
       <r>    4.4162    1.0000 </r>
       <r>    4.7908    1.0000 </r>
       <r>    8.2294    1.0000 </r>
       <r>    9.1152    1.0000 </r>
       <r>   12.4025    0.0000 </r>
       <r>   12.9022    0.0000 </r>
       <r>   16.7411    0.0000 </r>
      </set>
      <set comment="kpoint 96">
       <r>    0.6770    1.0000 </r>
       <r>    3.4410    1.0000 </r>
       <r>    5.3086    1.0000 </r>
       <r>    8.0052    1.0000 </r>
       <r>    8.8980    1.0000 </r>
       <r>   11.5276    0.0000 </r>
       <r>   13.3326    0.0000 </r>
       <r>   15.7968    0.0000 </r>
      </set>
      <set comment="kpoint 97">
       <r>    1.4902    1.0000 </r>
       <r>    2.4139    1.0000 </r>
       <r>    6.0953    1.0000 </r>
       <r>    6.9966    1.0000 </r>
       <r>    9.6748    0.9964 </r>
       <r>   10.5552    0.0000 </r>
       <r>   14.0600    0.0000 </r>
       <r>   14.8899    0.0000 </r>
      </set>
      <set comment="kpoint 98">
       <r>    1.3742    1.0000 </r>
       <r>    3.9568    1.0000 </r>
       <r>    4.3437    1.0000 </r>
       <r>    6.8867    1.0000 </r>
       <r>    9.5628    0.9996 </r>
       <r>   11.9654    0.0000 </r>
       <r>   12.4685    0.0000 </r>
       <r>   14.7863    0.0000 </r>
      </set>
      <set comment="kpoint 99">
       <r>    2.1830    1.0000 </r>
       <r>    3.0967    1.0000 </r>
       <r>    4.9720    1.0000 </r>
       <r>    5.8726    1.0000 </r>
       <r>   10.3332    0.0000 </r>
       <r>   11.1977    0.0000 </r>
       <r>   13.0103    0.0000 </r>
       <r>   13.8483    0.0000 </r>
      </set>
      <set comment="kpoint 100">
       <r>    2.9816    1.0000 </r>
       <r>    3.7258    1.0000 </r>
       <r>    4.1196    1.0000 </r>
       <r>    4.8594    1.0000 </r>
       <r>   11.0878    0.0000 </r>
       <r>   11.7481    0.0000 </r>
       <r>   12.2505    0.0000 </r>
       <r>   12.9026    0.0000 </r>
      </set>
      <set comment="kpoint 101">
       <r>   -0.7262    1.0000 </r>
       <r>    5.4129    1.0000 </r>
       <r>    5.9114    1.0000 </r>
       <r>    5.9114    1.0000 </r>
       <r>   11.5621    0.0000 </r>
       <r>   12.2121    0.0000 </r>
       <r>   12.2121    0.0000 </r>
       <r>   17.5840    0.0000 </r>
      </set>
      <set comment="kpoint 102">
       <r>   -0.1401    1.0000 </r>
       <r>    4.4614    1.0000 </r>
       <r>    6.1842    1.0000 </r>
       <r>    6.4771    1.0000 </r>
       <r>   10.5608    0.0000 </r>
       <r>   10.9829    0.0000 </r>
       <r>   12.5884    0.0000 </r>
       <r>   16.6660    0.0000 </r>
      </set>
      <set comment="kpoint 103">
       <r>    0.5607    1.0000 </r>
       <r>    3.3328    1.0000 </r>
       <r>    6.8468    1.0000 </r>
       <r>    7.1554    1.0000 </r>
       <r>    9.4971    1.0000 </r>
       <r>    9.8610    0.4742 </r>
       <r>   13.2157    0.0000 </r>
       <r>   15.7059    0.0000 </r>
      </set>
      <set comment="kpoint 104">
       <r>    1.3749    1.0000 </r>
       <r>    2.3002    1.0000 </r>
       <r>    7.6276    1.0000 </r>
       <r>    7.9460    1.0000 </r>
       <r>    8.5138    1.0000 </r>
       <r>    8.8481    1.0000 </r>
       <r>   13.9559    0.0000 </r>
       <r>   14.7916    0.0000 </r>
      </set>
      <set comment="kpoint 105">
       <r>    0.4442    1.0000 </r>
       <r>    4.8639    1.0000 </r>
       <r>    5.2443    1.0000 </r>
       <r>    6.9076    1.0000 </r>
       <r>    9.5399    0.9999 </r>
       <r>   11.1766    0.0000 </r>
       <r>   11.5623    0.0000 </r>
       <r>   15.6081    0.0000 </r>
      </set>
      <set comment="kpoint 106">
       <r>    1.1428    1.0000 </r>
       <r>    3.8986    1.0000 </r>
       <r>    5.7574    1.0000 </r>
       <r>    7.5783    1.0000 </r>
       <r>    8.4429    1.0000 </r>
       <r>   10.2428    0.0000 </r>
       <r>   12.0389    0.0000 </r>
       <r>   14.5862    0.0000 </r>
      </set>
      <set comment="kpoint 107">
       <r>    1.9541    1.0000 </r>
       <r>    2.8752    1.0000 </r>
       <r>    6.5416    1.0000 </r>
       <r>    7.4397    1.0000 </r>
       <r>    8.3619    1.0000 </r>
       <r>    9.2528    1.0000 </r>
       <r>   12.7856    0.0000 </r>
       <r>   13.6395    0.0000 </r>
      </set>
      <set comment="kpoint 108">
       <r>    1.8385    1.0000 </r>
       <r>    4.4151    1.0000 </r>
       <r>    4.7976    1.0000 </r>
       <r>    7.3337    1.0000 </r>
       <r>    8.2452    1.0000 </r>
       <r>   10.7168    0.0000 </r>
       <r>   11.1251    0.0000 </r>
       <r>   13.5337    0.0000 </r>
      </set>
      <set comment="kpoint 109">
       <r>    2.6455    1.0000 </r>
       <r>    3.5568    1.0000 </r>
       <r>    5.4255    1.0000 </r>
       <r>    6.3236    1.0000 </r>
       <r>    9.0235    1.0000 </r>
       <r>    9.9023    0.0994 </r>
       <r>   11.7115    0.0000 </r>
       <r>   12.5702    0.0000 </r>
      </set>
      <set comment="kpoint 110">
       <r>    3.4425    1.0000 </r>
       <r>    4.1870    1.0000 </r>
       <r>    4.5737    1.0000 </r>
       <r>    5.3138    1.0000 </r>
       <r>    9.7902    1.0163 </r>
       <r>   10.4934    0.0000 </r>
       <r>   10.9054    0.0000 </r>
       <r>   11.6023    0.0000 </r>
      </set>
      <set comment="kpoint 111">
       <r>    1.0268    1.0000 </r>
       <r>    5.2934    1.0000 </r>
       <r>    5.8110    1.0000 </r>
       <r>    5.8110    1.0000 </r>
       <r>    9.7665    1.0511 </r>
       <r>   10.3282    0.0000 </r>
       <r>   10.3282    0.0000 </r>
       <r>   14.4843    0.0000 </r>
      </set>
      <set comment="kpoint 112">
       <r>    1.7233    1.0000 </r>
       <r>    4.4628    1.0000 </r>
       <r>    6.1867    1.0000 </r>
       <r>    6.4906    1.0000 </r>
       <r>    8.8260    1.0000 </r>
       <r>    9.2027    1.0000 </r>
       <r>   10.8413    0.0000 </r>
       <r>   13.4288    0.0000 </r>
      </set>
      <set comment="kpoint 113">
       <r>    2.5318    1.0000 </r>
       <r>    3.4488    1.0000 </r>
       <r>    6.9591    1.0000 </r>
       <r>    7.2829    1.0000 </r>
       <r>    7.8461    1.0000 </r>
       <r>    8.1871    1.0000 </r>
       <r>   11.5953    0.0000 </r>
       <r>   12.4622    0.0000 </r>
      </set>
      <set comment="kpoint 114">
       <r>    2.4170    1.0000 </r>
       <r>    4.9766    1.0000 </r>
       <r>    5.3648    1.0000 </r>
       <r>    7.0289    1.0000 </r>
       <r>    7.8798    1.0000 </r>
       <r>    9.5515    0.9998 </r>
       <r>    9.8884    0.2047 </r>
       <r>   12.3544    0.0000 </r>
      </set>
      <set comment="kpoint 115">
       <r>    3.2212    1.0000 </r>
       <r>    4.1287    1.0000 </r>
       <r>    5.9868    1.0000 </r>
       <r>    6.8801    1.0000 </r>
       <r>    7.8099    1.0000 </r>
       <r>    8.6985    1.0000 </r>
       <r>   10.5052    0.0000 </r>
       <r>   11.3761    0.0000 </r>
      </set>
      <set comment="kpoint 116">
       <r>    4.0159    1.0000 </r>
       <r>    4.7579    1.0000 </r>
       <r>    5.1411    1.0000 </r>
       <r>    5.8786    1.0000 </r>
       <r>    8.5809    1.0000 </r>
       <r>    9.3132    1.0000 </r>
       <r>    9.6676    0.9955 </r>
       <r>   10.3944    0.0000 </r>
      </set>
      <set comment="kpoint 117">
       <r>    3.1079    1.0000 </r>
       <r>    5.5163    1.0000 </r>
       <r>    6.0451    1.0000 </r>
       <r>    6.0451    1.0000 </r>
       <r>    8.2491    1.0000 </r>
       <r>    8.7607    1.0000 </r>
       <r>    8.7607    1.0000 </r>
       <r>   11.2660    0.0000 </r>
      </set>
      <set comment="kpoint 118">
       <r>    3.9080    1.0000 </r>
       <r>    4.8056    1.0000 </r>
       <r>    6.5230    1.0000 </r>
       <r>    6.8381    1.0000 </r>
       <r>    7.3927    1.0000 </r>
       <r>    7.7436    1.0000 </r>
       <r>    9.4027    1.0000 </r>
       <r>   10.2783    0.0000 </r>
      </set>
      <set comment="kpoint 119">
       <r>    4.6984    1.0000 </r>
       <r>    5.4280    1.0000 </r>
       <r>    5.8217    1.0000 </r>
       <r>    6.5454    1.0000 </r>
       <r>    7.4783    1.0000 </r>
       <r>    8.2330    1.0000 </r>
       <r>    8.5389    1.0000 </r>
       <r>    9.2873    1.0000 </r>
      </set>
      <set comment="kpoint 120">
       <r>    5.4774    1.0000 </r>
       <r>    6.0627    1.0000 </r>
       <r>    6.6151    1.0000 </r>
       <r>    6.6151    1.0000 </r>
       <r>    7.0647    1.0000 </r>
       <r>    7.5211    1.0000 </r>
       <r>    7.5211    1.0000 </r>
       <r>    8.2910    1.0000 </r>
      </set>
     </set>
    </set>
   </array>
  </eigenvalues>
  <separator name="orbital magnetization" >
   <v name="MAGDIPOLOUT">      0.00000000      0.00000000      0.00000000</v>
  </separator>
  <dos>
   <i name="efermi">      9.85853041 </i>
   <total>
    <array>
     <dimension dim="1">gridpoints</dimension>
     <dimension dim="2">spin</dimension>
     <field>energy</field>
     <field>total</field>
     <field>integrated</field>
     <set>
      <set comment="spin 1">
       <r>    -5.5178     0.0000     0.0000 </r>
       <r>    -5.4269     0.0000     0.0000 </r>
       <r>    -5.3360     0.0000     0.0000 </r>
       <r>    -5.2452     0.0000     0.0000 </r>
       <r>    -5.1543     0.0000     0.0000 </r>
       <r>    -5.0634     0.0000     0.0000 </r>
       <r>    -4.9726     0.0000     0.0000 </r>
       <r>    -4.8817     0.0000     0.0000 </r>
       <r>    -4.7908     0.0000     0.0000 </r>
       <r>    -4.7000     0.0000     0.0000 </r>
       <r>    -4.6091     0.0000     0.0000 </r>
       <r>    -4.5183     0.0001     0.0000 </r>
       <r>    -4.4274    -0.0005     0.0000 </r>
       <r>    -4.3365     0.0016     0.0001 </r>
       <r>    -4.2457     0.0285     0.0027 </r>
       <r>    -4.1548     0.0804     0.0100 </r>
       <r>    -4.0639     0.0990     0.0190 </r>
       <r>    -3.9731     0.1013     0.0282 </r>
       <r>    -3.8822     0.1294     0.0400 </r>
       <r>    -3.7913     0.1890     0.0571 </r>
       <r>    -3.7005     0.1498     0.0708 </r>
       <r>    -3.6096     0.1042     0.0802 </r>
       <r>    -3.5188     0.1991     0.0983 </r>
       <r>    -3.4279     0.2954     0.1251 </r>
       <r>    -3.3370     0.1861     0.1421 </r>
       <r>    -3.2462     0.1099     0.1520 </r>
       <r>    -3.1553     0.2401     0.1739 </r>
       <r>    -3.0644     0.2991     0.2010 </r>
       <r>    -2.9736     0.2283     0.2218 </r>
       <r>    -2.8827     0.2163     0.2414 </r>
       <r>    -2.7918     0.3064     0.2693 </r>
       <r>    -2.7010     0.3059     0.2971 </r>
       <r>    -2.6101     0.2254     0.3175 </r>
       <r>    -2.5193     0.1827     0.3341 </r>
       <r>    -2.4284     0.2255     0.3546 </r>
       <r>    -2.3375     0.5118     0.4011 </r>
       <r>    -2.2467     0.3441     0.4324 </r>
       <r>    -2.1558     0.2469     0.4548 </r>
       <r>    -2.0649     0.2565     0.4781 </r>
       <r>    -1.9741     0.4167     0.5160 </r>
       <r>    -1.8832     0.1099     0.5260 </r>
       <r>    -1.7923     0.3164     0.5547 </r>
       <r>    -1.7015     0.5230     0.6023 </r>
       <r>    -1.6106     0.4936     0.6471 </r>
       <r>    -1.5198     0.2039     0.6656 </r>
       <r>    -1.4289     0.3291     0.6955 </r>
       <r>    -1.3380     0.4074     0.7326 </r>
       <r>    -1.2472     0.3902     0.7680 </r>
       <r>    -1.1563     0.2988     0.7952 </r>
       <r>    -1.0654     0.3697     0.8288 </r>
       <r>    -0.9746     0.4579     0.8704 </r>
       <r>    -0.8837     0.4453     0.9108 </r>
       <r>    -0.7928     0.1898     0.9281 </r>
       <r>    -0.7020     0.3941     0.9639 </r>
       <r>    -0.6111     0.6171     1.0200 </r>
       <r>    -0.5203     0.6190     1.0762 </r>
       <r>    -0.4294     0.3703     1.1098 </r>
       <r>    -0.3385     0.1907     1.1272 </r>
       <r>    -0.2477     0.4406     1.1672 </r>
       <r>    -0.1568     0.4143     1.2049 </r>
       <r>    -0.0659     0.2993     1.2320 </r>
       <r>     0.0249     0.4036     1.2687 </r>
       <r>     0.1158     0.7944     1.3409 </r>
       <r>     0.2067     0.4841     1.3849 </r>
       <r>     0.2975     0.3606     1.4176 </r>
       <r>     0.3884     0.6155     1.4736 </r>
       <r>     0.4792     0.4166     1.5114 </r>
       <r>     0.5701     0.3020     1.5389 </r>
       <r>     0.6610     0.4360     1.5785 </r>
       <r>     0.7518     0.6105     1.6339 </r>
       <r>     0.8427     0.5051     1.6798 </r>
       <r>     0.9336     0.4129     1.7174 </r>
       <r>     1.0244     0.3935     1.7531 </r>
       <r>     1.1153     0.5683     1.8048 </r>
       <r>     1.2062     0.7939     1.8769 </r>
       <r>     1.2970     0.3027     1.9044 </r>
       <r>     1.3879     0.4326     1.9437 </r>
       <r>     1.4787     0.7000     2.0073 </r>
       <r>     1.5696     0.6862     2.0697 </r>
       <r>     1.6605     0.1827     2.0863 </r>
       <r>     1.7513     0.5620     2.1373 </r>
       <r>     1.8422     0.8753     2.2169 </r>
       <r>     1.9331     0.6125     2.2725 </r>
       <r>     2.0239     0.1877     2.2896 </r>
       <r>     2.1148     0.4191     2.3277 </r>
       <r>     2.2057     0.4953     2.3727 </r>
       <r>     2.2965     0.5637     2.4239 </r>
       <r>     2.3874     0.7011     2.4876 </r>
       <r>     2.4782     0.8118     2.5613 </r>
       <r>     2.5691     0.7165     2.6265 </r>
       <r>     2.6600     0.5458     2.6760 </r>
       <r>     2.7508     0.4607     2.7179 </r>
       <r>     2.8417     0.5155     2.7647 </r>
       <r>     2.9326     0.9035     2.8468 </r>
       <r>     3.0234     0.3898     2.8823 </r>
       <r>     3.1143     0.5291     2.9303 </r>
       <r>     3.2052     0.4891     2.9748 </r>
       <r>     3.2960     0.4928     3.0195 </r>
       <r>     3.3869     0.5291     3.0676 </r>
       <r>     3.4777     0.9202     3.1512 </r>
       <r>     3.5686     0.6718     3.2123 </r>
       <r>     3.6595     0.6257     3.2691 </r>
       <r>     3.7503     0.5961     3.3233 </r>
       <r>     3.8412     0.5412     3.3725 </r>
       <r>     3.9321     0.6064     3.4276 </r>
       <r>     4.0229     0.5494     3.4775 </r>
       <r>     4.1138     0.6778     3.5391 </r>
       <r>     4.2047     0.8499     3.6163 </r>
       <r>     4.2955     0.5631     3.6675 </r>
       <r>     4.3864     0.4521     3.7085 </r>
       <r>     4.4772     0.9366     3.7936 </r>
       <r>     4.5681     0.5313     3.8419 </r>
       <r>     4.6590     0.4604     3.8837 </r>
       <r>     4.7498     0.5651     3.9351 </r>
       <r>     4.8407     0.9619     4.0225 </r>
       <r>     4.9316     0.6318     4.0799 </r>
       <r>     5.0224     0.6697     4.1408 </r>
       <r>     5.1133     0.3448     4.1721 </r>
       <r>     5.2042     0.7447     4.2398 </r>
       <r>     5.2950     0.9260     4.3239 </r>
       <r>     5.3859     0.9467     4.4099 </r>
       <r>     5.4767     0.8999     4.4917 </r>
       <r>     5.5676     0.8525     4.5691 </r>
       <r>     5.6585     0.2042     4.5877 </r>
       <r>     5.7493     0.3708     4.6214 </r>
       <r>     5.8402     0.7947     4.6936 </r>
       <r>     5.9311     0.9101     4.7763 </r>
       <r>     6.0219     0.7894     4.8480 </r>
       <r>     6.1128     0.5899     4.9016 </r>
       <r>     6.2037     0.4877     4.9459 </r>
       <r>     6.2945     0.6766     5.0074 </r>
       <r>     6.3854     0.8965     5.0889 </r>
       <r>     6.4762     0.6359     5.1467 </r>
       <r>     6.5671     1.3497     5.2693 </r>
       <r>     6.6580     0.8661     5.3480 </r>
       <r>     6.7488     0.4965     5.3931 </r>
       <r>     6.8397     0.6106     5.4486 </r>
       <r>     6.9306     0.9460     5.5345 </r>
       <r>     7.0214     0.8538     5.6121 </r>
       <r>     7.1123     0.6948     5.6753 </r>
       <r>     7.2032     0.4222     5.7136 </r>
       <r>     7.2940     0.4336     5.7530 </r>
       <r>     7.3849     1.0236     5.8460 </r>
       <r>     7.4757     0.9465     5.9320 </r>
       <r>     7.5666     0.9020     6.0140 </r>
       <r>     7.6575     0.9121     6.0969 </r>
       <r>     7.7483     0.8725     6.1761 </r>
       <r>     7.8392     0.5741     6.2283 </r>
       <r>     7.9301     0.6409     6.2865 </r>
       <r>     8.0209     0.8627     6.3649 </r>
       <r>     8.1118     1.0838     6.4634 </r>
       <r>     8.2027     0.7886     6.5351 </r>
       <r>     8.2935     0.6719     6.5961 </r>
       <r>     8.3844     0.7521     6.6645 </r>
       <r>     8.4752     0.9538     6.7511 </r>
       <r>     8.5661     0.8716     6.8303 </r>
       <r>     8.6570     0.8798     6.9103 </r>
       <r>     8.7478     0.8331     6.9860 </r>
       <r>     8.8387     0.8877     7.0666 </r>
       <r>     8.9296     1.1708     7.1730 </r>
       <r>     9.0204     0.4471     7.2136 </r>
       <r>     9.1113     0.7557     7.2823 </r>
       <r>     9.2022     1.0266     7.3756 </r>
       <r>     9.2930     1.1161     7.4770 </r>
       <r>     9.3839     0.7317     7.5435 </r>
       <r>     9.4747     0.8839     7.6238 </r>
       <r>     9.5656     0.9940     7.7141 </r>
       <r>     9.6565     0.8562     7.7919 </r>
       <r>     9.7473     0.9940     7.8822 </r>
       <r>     9.8382     1.0752     7.9799 </r>
       <r>     9.9291     0.9510     8.0663 </r>
       <r>    10.0199     0.7693     8.1362 </r>
       <r>    10.1108     1.0573     8.2323 </r>
       <r>    10.2017     0.6424     8.2907 </r>
       <r>    10.2925     1.0048     8.3820 </r>
       <r>    10.3834     1.3916     8.5084 </r>
       <r>    10.4742     0.7910     8.5803 </r>
       <r>    10.5651     1.2342     8.6924 </r>
       <r>    10.6560     0.3269     8.7221 </r>
       <r>    10.7468     0.3522     8.7541 </r>
       <r>    10.8377     0.8842     8.8345 </r>
       <r>    10.9286     0.9856     8.9240 </r>
       <r>    11.0194     0.9591     9.0112 </r>
       <r>    11.1103     1.1009     9.1112 </r>
       <r>    11.2012     0.9271     9.1955 </r>
       <r>    11.2920     0.8523     9.2729 </r>
       <r>    11.3829     0.9068     9.3553 </r>
       <r>    11.4737     1.0603     9.4516 </r>
       <r>    11.5646     0.8584     9.5296 </r>
       <r>    11.6555     0.3705     9.5633 </r>
       <r>    11.7463     1.1847     9.6709 </r>
       <r>    11.8372     0.8625     9.7493 </r>
       <r>    11.9281     0.4014     9.7858 </r>
       <r>    12.0189     0.9643     9.8734 </r>
       <r>    12.1098     0.9569     9.9604 </r>
       <r>    12.2007     0.5744    10.0125 </r>
       <r>    12.2915     0.6756    10.0739 </r>
       <r>    12.3824     0.9222    10.1577 </r>
       <r>    12.4732     1.7924    10.3206 </r>
       <r>    12.5641     1.3800    10.4460 </r>
       <r>    12.6550     0.5144    10.4927 </r>
       <r>    12.7458     0.4755    10.5359 </r>
       <r>    12.8367     0.9588    10.6230 </r>
       <r>    12.9276     0.9380    10.7083 </r>
       <r>    13.0184     0.9727    10.7967 </r>
       <r>    13.1093     1.2878    10.9137 </r>
       <r>    13.2002     0.5961    10.9678 </r>
       <r>    13.2910     0.7302    11.0342 </r>
       <r>    13.3819     1.1304    11.1369 </r>
       <r>    13.4727     0.5895    11.1905 </r>
       <r>    13.5636     0.7763    11.2610 </r>
       <r>    13.6545     1.2535    11.3749 </r>
       <r>    13.7453     1.2680    11.4901 </r>
       <r>    13.8362     0.9276    11.5744 </r>
       <r>    13.9271     1.1131    11.6755 </r>
       <r>    14.0179     0.8380    11.7517 </r>
       <r>    14.1088     1.2687    11.8670 </r>
       <r>    14.1997     0.8951    11.9483 </r>
       <r>    14.2905     0.9098    12.0310 </r>
       <r>    14.3814     0.9100    12.1137 </r>
       <r>    14.4722     1.2233    12.2248 </r>
       <r>    14.5631     1.4364    12.3553 </r>
       <r>    14.6540     0.4164    12.3932 </r>
       <r>    14.7448     0.5787    12.4457 </r>
       <r>    14.8357     1.1361    12.5490 </r>
       <r>    14.9266     1.6989    12.7033 </r>
       <r>    15.0174     1.2398    12.8160 </r>
       <r>    15.1083     0.5664    12.8675 </r>
       <r>    15.1992     0.9672    12.9553 </r>
       <r>    15.2900     1.5201    13.0935 </r>
       <r>    15.3809     0.6605    13.1535 </r>
       <r>    15.4717     0.9077    13.2359 </r>
       <r>    15.5626     1.4817    13.3706 </r>
       <r>    15.6535     0.5412    13.4198 </r>
       <r>    15.7443     0.4786    13.4632 </r>
       <r>    15.8352     1.6044    13.6090 </r>
       <r>    15.9261     1.1424    13.7128 </r>
       <r>    16.0169     0.8228    13.7876 </r>
       <r>    16.1078     1.1924    13.8959 </r>
       <r>    16.1987     1.3574    14.0193 </r>
       <r>    16.2895     0.8817    14.0994 </r>
       <r>    16.3804     1.1121    14.2004 </r>
       <r>    16.4712     1.6124    14.3469 </r>
       <r>    16.5621     0.8684    14.4258 </r>
       <r>    16.6530     0.7062    14.4900 </r>
       <r>    16.7438     1.1368    14.5933 </r>
       <r>    16.8347     0.9288    14.6777 </r>
       <r>    16.9256     0.9169    14.7610 </r>
       <r>    17.0164     0.6741    14.8223 </r>
       <r>    17.1073     1.1705    14.9286 </r>
       <r>    17.1982     1.6232    15.0761 </r>
       <r>    17.2890     0.9521    15.1626 </r>
       <r>    17.3799     1.4910    15.2981 </r>
       <r>    17.4707     1.5162    15.4359 </r>
       <r>    17.5616     0.9954    15.5263 </r>
       <r>    17.6525     0.9898    15.6162 </r>
       <r>    17.7433     0.8758    15.6958 </r>
       <r>    17.8342     0.6525    15.7551 </r>
       <r>    17.9251     0.4052    15.7919 </r>
       <r>    18.0159     0.4439    15.8323 </r>
       <r>    18.1068     0.6862    15.8946 </r>
       <r>    18.1977     0.2092    15.9136 </r>
       <r>    18.2885     0.1326    15.9257 </r>
       <r>    18.3794     0.1624    15.9404 </r>
       <r>    18.4702     0.0737    15.9471 </r>
       <r>    18.5611     0.1556    15.9613 </r>
       <r>    18.6520     0.2560    15.9845 </r>
       <r>    18.7428     0.0005    15.9846 </r>
       <r>    18.8337    -0.0029    15.9843 </r>
       <r>    18.9246     0.0007    15.9844 </r>
       <r>    19.0154     0.0000    15.9844 </r>
       <r>    19.1063     0.0000    15.9844 </r>
       <r>    19.1972     0.0000    15.9844 </r>
       <r>    19.2880     0.0001    15.9844 </r>
       <r>    19.3789     0.0006    15.9844 </r>
       <r>    19.4697    -0.0068    15.9838 </r>
       <r>    19.5606     0.0484    15.9882 </r>
       <r>    19.6515     0.0907    15.9965 </r>
       <r>    19.7423    -0.0037    15.9961 </r>
       <r>    19.8332    -0.0005    15.9961 </r>
       <r>    19.9241     0.0002    15.9961 </r>
       <r>    20.0149     0.0000    15.9961 </r>
       <r>    20.1058     0.0000    15.9961 </r>
       <r>    20.1967     0.0000    15.9961 </r>
       <r>    20.2875     0.0002    15.9961 </r>
       <r>    20.3784    -0.0017    15.9960 </r>
       <r>    20.4692     0.0091    15.9968 </r>
       <r>    20.5601     0.0344    15.9999 </r>
       <r>    20.6510     0.0015    16.0000 </r>
       <r>    20.7418    -0.0006    16.0000 </r>
       <r>    20.8327     0.0001    16.0000 </r>
       <r>    20.9236     0.0000    16.0000 </r>
       <r>    21.0144     0.0000    16.0000 </r>
       <r>    21.1053     0.0000    16.0000 </r>
       <r>    21.1962     0.0000    16.0000 </r>
       <r>    21.2870     0.0000    16.0000 </r>
       <r>    21.3779     0.0000    16.0000 </r>
       <r>    21.4687     0.0000    16.0000 </r>
       <r>    21.5596     0.0000    16.0000 </r>
       <r>    21.6505     0.0000    16.0000 </r>
       <r>    21.7413     0.0000    16.0000 </r>
      </set>
     </set>
    </array>
   </total>
  </dos>
 </calculation>
 <structure name="finalpos" >
  <crystal>
   <varray name="basis" >
    <v>       3.08338250       0.00000000       0.00000000 </v>
    <v>       0.00000000       3.08338250       0.00000000 </v>
    <v>       0.00000000       0.00000000       3.08338250 </v>
   </varray>
   <i name="volume">     29.31448100 </i>
   <varray name="rec_basis" >
    <v>       0.32431915       0.00000000       0.00000000 </v>
    <v>       0.00000000       0.32431915       0.00000000 </v>
    <v>       0.00000000       0.00000000       0.32431915 </v>
   </varray>
  </crystal>
  <varray name="positions" >
   <v>       0.00000000       0.00000000       0.00000000 </v>
   <v>       0.50000000       0.50000000       0.50000000 </v>
  </varray>
 </structure>
</modeling>
