<?xml version="1.0" encoding="ISO-8859-1"?>
<modeling>
 <generator>
  <i name="program" type="string">vasp </i>
  <i name="version" type="string">5.4.1  </i>
  <i name="subversion" type="string">24Jun15 (build Jul  8 2015 13:29:37) complex                          parallel </i>
  <i name="platform" type="string">FX10FRT </i>
  <i name="date" type="string">2016 02 20 </i>
  <i name="time" type="string">06:59:48 </i>
 </generator>
 <incar>
  <i type="string" name="PREC">accurate</i>
  <i type="string" name="ALGO"> Normal</i>
  <i type="int" name="ISPIN">     1</i>
  <i type="int" name="IBRION">    -1</i>
  <i name="EDIFF">      0.00010000</i>
  <i type="int" name="NSW">     0</i>
  <i type="int" name="ISIF">     2</i>
  <i name="ENCUT">    400.00000000</i>
  <i type="int" name="ISMEAR">     2</i>
  <i name="SIGMA">      0.10000000</i>
  <i type="int" name="NWRITE">     1</i>
  <v type="int" name="KPOINT_BSE">    -1     0     0     0</v>
 </incar>
 <kpoints>
  <generation param="Monkhorst-Pack">
   <v type="int" name="divisions">      11       11       11 </v>
   <v name="usershift">      0.00000000       0.00000000       0.00000000 </v>
   <v name="genvec1">      0.09090909       0.00000000       0.00000000 </v>
   <v name="genvec2">      0.00000000       0.09090909       0.00000000 </v>
   <v name="genvec3">      0.00000000       0.00000000       0.09090909 </v>
   <v name="shift">      0.00000000       0.00000000       0.00000000 </v>
  </generation>
  <varray name="kpointlist" >
   <v>       0.00000000       0.00000000       0.00000000 </v>
   <v>       0.09090909       0.00000000       0.00000000 </v>
   <v>       0.18181818       0.00000000       0.00000000 </v>
   <v>       0.27272727       0.00000000       0.00000000 </v>
   <v>       0.36363636       0.00000000       0.00000000 </v>
   <v>       0.45454545       0.00000000       0.00000000 </v>
   <v>       0.09090909       0.09090909       0.00000000 </v>
   <v>       0.18181818       0.09090909       0.00000000 </v>
   <v>       0.27272727       0.09090909       0.00000000 </v>
   <v>       0.36363636       0.09090909       0.00000000 </v>
   <v>       0.45454545       0.09090909       0.00000000 </v>
   <v>       0.18181818       0.18181818       0.00000000 </v>
   <v>       0.27272727       0.18181818       0.00000000 </v>
   <v>       0.36363636       0.18181818       0.00000000 </v>
   <v>       0.45454545       0.18181818       0.00000000 </v>
   <v>       0.27272727       0.27272727       0.00000000 </v>
   <v>       0.36363636       0.27272727       0.00000000 </v>
   <v>       0.45454545       0.27272727       0.00000000 </v>
   <v>       0.36363636       0.36363636       0.00000000 </v>
   <v>       0.45454545       0.36363636       0.00000000 </v>
   <v>       0.45454545       0.45454545       0.00000000 </v>
   <v>       0.09090909       0.09090909       0.09090909 </v>
   <v>       0.18181818       0.09090909       0.09090909 </v>
   <v>       0.27272727       0.09090909       0.09090909 </v>
   <v>       0.36363636       0.09090909       0.09090909 </v>
   <v>       0.45454545       0.09090909       0.09090909 </v>
   <v>       0.18181818       0.18181818       0.09090909 </v>
   <v>       0.27272727       0.18181818       0.09090909 </v>
   <v>       0.36363636       0.18181818       0.09090909 </v>
   <v>       0.45454545       0.18181818       0.09090909 </v>
   <v>       0.27272727       0.27272727       0.09090909 </v>
   <v>       0.36363636       0.27272727       0.09090909 </v>
   <v>       0.45454545       0.27272727       0.09090909 </v>
   <v>       0.36363636       0.36363636       0.09090909 </v>
   <v>       0.45454545       0.36363636       0.09090909 </v>
   <v>       0.45454545       0.45454545       0.09090909 </v>
   <v>       0.18181818       0.18181818       0.18181818 </v>
   <v>       0.27272727       0.18181818       0.18181818 </v>
   <v>       0.36363636       0.18181818       0.18181818 </v>
   <v>       0.45454545       0.18181818       0.18181818 </v>
   <v>       0.27272727       0.27272727       0.18181818 </v>
   <v>       0.36363636       0.27272727       0.18181818 </v>
   <v>       0.45454545       0.27272727       0.18181818 </v>
   <v>       0.36363636       0.36363636       0.18181818 </v>
   <v>       0.45454545       0.36363636       0.18181818 </v>
   <v>       0.45454545       0.45454545       0.18181818 </v>
   <v>       0.27272727       0.27272727       0.27272727 </v>
   <v>       0.36363636       0.27272727       0.27272727 </v>
   <v>       0.45454545       0.27272727       0.27272727 </v>
   <v>       0.36363636       0.36363636       0.27272727 </v>
   <v>       0.45454545       0.36363636       0.27272727 </v>
   <v>       0.45454545       0.45454545       0.27272727 </v>
   <v>       0.36363636       0.36363636       0.36363636 </v>
   <v>       0.45454545       0.36363636       0.36363636 </v>
   <v>       0.45454545       0.45454545       0.36363636 </v>
   <v>       0.45454545       0.45454545       0.45454545 </v>
  </varray>
  <varray name="weights" >
   <v>       0.00075131 </v>
   <v>       0.00450789 </v>
   <v>       0.00450789 </v>
   <v>       0.00450789 </v>
   <v>       0.00450789 </v>
   <v>       0.00450789 </v>
   <v>       0.00901578 </v>
   <v>       0.01803156 </v>
   <v>       0.01803156 </v>
   <v>       0.01803156 </v>
   <v>       0.01803156 </v>
   <v>       0.00901578 </v>
   <v>       0.01803156 </v>
   <v>       0.01803156 </v>
   <v>       0.01803156 </v>
   <v>       0.00901578 </v>
   <v>       0.01803156 </v>
   <v>       0.01803156 </v>
   <v>       0.00901578 </v>
   <v>       0.01803156 </v>
   <v>       0.00901578 </v>
   <v>       0.00601052 </v>
   <v>       0.01803156 </v>
   <v>       0.01803156 </v>
   <v>       0.01803156 </v>
   <v>       0.01803156 </v>
   <v>       0.01803156 </v>
   <v>       0.03606311 </v>
   <v>       0.03606311 </v>
   <v>       0.03606311 </v>
   <v>       0.01803156 </v>
   <v>       0.03606311 </v>
   <v>       0.03606311 </v>
   <v>       0.01803156 </v>
   <v>       0.03606311 </v>
   <v>       0.01803156 </v>
   <v>       0.00601052 </v>
   <v>       0.01803156 </v>
   <v>       0.01803156 </v>
   <v>       0.01803156 </v>
   <v>       0.01803156 </v>
   <v>       0.03606311 </v>
   <v>       0.03606311 </v>
   <v>       0.01803156 </v>
   <v>       0.03606311 </v>
   <v>       0.01803156 </v>
   <v>       0.00601052 </v>
   <v>       0.01803156 </v>
   <v>       0.01803156 </v>
   <v>       0.01803156 </v>
   <v>       0.03606311 </v>
   <v>       0.01803156 </v>
   <v>       0.00601052 </v>
   <v>       0.01803156 </v>
   <v>       0.01803156 </v>
   <v>       0.00601052 </v>
  </varray>
 </kpoints>
 <parameters>
  <separator name="general" >
   <i type="string" name="SYSTEM">unknown system</i>
   <i type="logical" name="LCOMPAT"> F  </i>
  </separator>
  <separator name="electronic" >
   <i type="string" name="PREC">accura</i>
   <i name="ENMAX">    400.00000000</i>
   <i name="ENAUG">    322.06900000</i>
   <i name="EDIFF">      0.00010000</i>
   <i type="int" name="IALGO">    38</i>
   <i type="int" name="IWAVPR">    10</i>
   <i type="int" name="NBANDS">     8</i>
   <i name="NELECT">      8.00000000</i>
   <i type="int" name="TURBO">     0</i>
   <i type="int" name="IRESTART">     0</i>
   <i type="int" name="NREBOOT">     0</i>
   <i type="int" name="NMIN">     0</i>
   <i name="EREF">      0.00000000</i>
   <separator name="electronic smearing" >
    <i type="int" name="ISMEAR">     2</i>
    <i name="SIGMA">      0.10000000</i>
    <i name="KSPACING">      0.50000000</i>
    <i type="logical" name="KGAMMA"> T  </i>
   </separator>
   <separator name="electronic projectors" >
    <i type="logical" name="LREAL"> F  </i>
    <v name="ROPT">      0.00000000</v>
    <i type="int" name="LMAXPAW">  -100</i>
    <i type="int" name="LMAXMIX">     2</i>
    <i type="logical" name="NLSPLINE"> F  </i>
   </separator>
   <separator name="electronic startup" >
    <i type="int" name="ISTART">     0</i>
    <i type="int" name="ICHARG">     2</i>
    <i type="int" name="INIWAV">     1</i>
   </separator>
   <separator name="electronic spin" >
    <i type="int" name="ISPIN">     1</i>
    <i type="logical" name="LNONCOLLINEAR"> F  </i>
    <v name="MAGMOM">      1.00000000      1.00000000</v>
    <i name="NUPDOWN">     -1.00000000</i>
    <i type="logical" name="LSORBIT"> F  </i>
    <v name="SAXIS">      0.00000000      0.00000000      1.00000000</v>
    <i type="logical" name="LSPIRAL"> F  </i>
    <v name="QSPIRAL">      0.00000000      0.00000000      0.00000000</v>
    <i type="logical" name="LZEROZ"> F  </i>
   </separator>
   <separator name="electronic exchange-correlation" >
    <i type="logical" name="LASPH"> F  </i>
    <i type="logical" name="LMETAGGA"> F  </i>
   </separator>
   <separator name="electronic convergence" >
    <i type="int" name="NELM">    60</i>
    <i type="int" name="NELMDL">    -5</i>
    <i type="int" name="NELMIN">     2</i>
    <i name="ENINI">    400.00000000</i>
    <separator name="electronic convergence detail" >
     <i type="logical" name="LDIAG"> T  </i>
     <i type="logical" name="LSUBROT"> F  </i>
     <i name="WEIMIN">      0.00000000</i>
     <i name="EBREAK">      0.00000313</i>
     <i name="DEPER">      0.30000000</i>
     <i type="int" name="NRMM">     4</i>
     <i name="TIME">      0.40000000</i>
    </separator>
   </separator>
   <separator name="electronic mixer" >
    <i name="AMIX">      0.40000000</i>
    <i name="BMIX">      1.00000000</i>
    <i name="AMIN">      0.10000000</i>
    <i name="AMIX_MAG">      1.60000000</i>
    <i name="BMIX_MAG">      1.00000000</i>
    <separator name="electronic mixer details" >
     <i type="int" name="IMIX">     4</i>
     <i type="logical" name="MIXFIRST"> F  </i>
     <i type="int" name="MAXMIX">   -45</i>
     <i name="WC">    100.00000000</i>
     <i type="int" name="INIMIX">     1</i>
     <i type="int" name="MIXPRE">     1</i>
     <i type="int" name="MREMOVE">     5</i>
    </separator>
   </separator>
   <separator name="electronic dipolcorrection" >
    <i type="logical" name="LDIPOL"> F  </i>
    <i type="logical" name="LMONO"> F  </i>
    <i type="int" name="IDIPOL">     0</i>
    <i name="EPSILON">      1.00000000</i>
    <v name="DIPOL">   -100.00000000   -100.00000000   -100.00000000</v>
    <i name="EFIELD">      0.00000000</i>
   </separator>
  </separator>
  <separator name="grids" >
   <i type="int" name="NGX">    30</i>
   <i type="int" name="NGY">    30</i>
   <i type="int" name="NGZ">    30</i>
   <i type="int" name="NGXF">    60</i>
   <i type="int" name="NGYF">    60</i>
   <i type="int" name="NGZF">    60</i>
   <i type="logical" name="ADDGRID"> F  </i>
  </separator>
  <separator name="ionic" >
   <i type="int" name="NSW">     0</i>
   <i type="int" name="IBRION">    -1</i>
   <i type="int" name="ISIF">     2</i>
   <i name="PSTRESS">      0.00000000</i>
   <i name="EDIFFG">      0.00100000</i>
   <i type="int" name="NFREE">     0</i>
   <i name="POTIM">      0.50000000</i>
   <i name="SMASS">     -3.00000000</i>
   <i name="SCALEE">      1.00000000</i>
  </separator>
  <separator name="ionic md" >
   <i name="TEBEG">      0.00010000</i>
   <i name="TEEND">      0.00010000</i>
   <i type="int" name="NBLOCK">     1</i>
   <i type="int" name="KBLOCK">     1</i>
   <i type="int" name="NPACO">   256</i>
   <i name="APACO">     16.00000000</i>
  </separator>
  <separator name="symmetry" >
   <i type="int" name="ISYM">     2</i>
   <i name="SYMPREC">      0.00001000</i>
  </separator>
  <separator name="dos" >
   <i type="logical" name="LORBIT"> F  </i>
   <v name="RWIGS">     -1.00000000</v>
   <i type="int" name="NEDOS">   301</i>
   <i name="EMIN">     10.00000000</i>
   <i name="EMAX">    -10.00000000</i>
   <i name="EFERMI">      0.00000000</i>
  </separator>
  <separator name="writing" >
   <i type="int" name="NWRITE">     1</i>
   <i type="logical" name="LWAVE"> T  </i>
   <i type="logical" name="LCHARG"> T  </i>
   <i type="logical" name="LPARD"> F  </i>
   <i type="logical" name="LVTOT"> F  </i>
   <i type="logical" name="LVHAR"> F  </i>
   <i type="logical" name="LELF"> F  </i>
   <i type="logical" name="LOPTICS"> F  </i>
   <v name="STM">      0.00000000      0.00000000      0.00000000      0.00000000      0.00000000      0.00000000      0.00000000</v>
  </separator>
  <separator name="performance" >
   <i type="int" name="NPAR">     8</i>
   <i type="int" name="NSIM">     4</i>
   <i type="int" name="NBLK">    -1</i>
   <i type="logical" name="LPLANE"> T  </i>
   <i type="logical" name="LSCALAPACK"> T  </i>
   <i type="logical" name="LSCAAWARE"> F  </i>
   <i type="logical" name="LSCALU"> F  </i>
   <i type="logical" name="LASYNC"> F  </i>
   <i type="logical" name="LORBITALREAL"> F  </i>
  </separator>
  <separator name="miscellaneous" >
   <i type="int" name="IDIOT">     3</i>
   <i type="logical" name="LMUSIC"> F  </i>
   <v name="POMASS">     28.08500000</v>
   <v name="DARWINR">      0.00000000</v>
   <v name="DARWINV">      1.00000000</v>
   <i type="logical" name="LCORR"> T  </i>
  </separator>
  <i type="logical" name="GGA_COMPAT"> T  </i>
  <i type="logical" name="LBERRY"> F  </i>
  <i type="int" name="ICORELEVEL">     0</i>
  <i type="logical" name="LDAU"> F  </i>
  <i type="int" name="I_CONSTRAINED_M">     0</i>
  <separator name="electronic exchange-correlation" >
   <i type="string" name="GGA">--</i>
   <i type="int" name="VOSKOWN">     0</i>
   <i type="logical" name="LHFCALC"> F  </i>
   <i type="string" name="PRECFOCK"></i>
   <i type="logical" name="LSYMGRAD"> F  </i>
   <i type="logical" name="LHFONE"> F  </i>
   <i type="logical" name="LRHFCALC"> F  </i>
   <i type="logical" name="LTHOMAS"> F  </i>
   <i type="logical" name="LMODELHF"> F  </i>
   <i name="ENCUT4O">     -1.00000000</i>
   <i type="int" name="EXXOEP">     0</i>
   <i type="int" name="FOURORBIT">     0</i>
   <i name="AEXX">      0.00000000</i>
   <i name="HFALPHA">      0.00000000</i>
   <i name="MCALPHA">      0.00000000</i>
   <i name="ALDAX">      1.00000000</i>
   <i name="AGGAX">      1.00000000</i>
   <i name="ALDAC">      1.00000000</i>
   <i name="AGGAC">      1.00000000</i>
   <i type="int" name="NKREDX">     1</i>
   <i type="int" name="NKREDY">     1</i>
   <i type="int" name="NKREDZ">     1</i>
   <i type="logical" name="SHIFTRED"> F  </i>
   <i type="logical" name="ODDONLY"> F  </i>
   <i type="logical" name="EVENONLY"> F  </i>
   <i type="int" name="LMAXFOCK">     0</i>
   <i type="int" name="NMAXFOCKAE">     0</i>
   <i type="logical" name="LFOCKAEDFT"> F  </i>
   <i name="HFSCREEN">      0.00000000</i>
   <i name="HFSCREENC">      0.00000000</i>
   <i type="int" name="NBANDSGWLOW">     0</i>
  </separator>
  <separator name="vdW DFT" >
   <i type="logical" name="LUSE_VDW"> F  </i>
   <i name="Zab_VDW">     -0.84910000</i>
   <i name="PARAM1">      0.12340000</i>
   <i name="PARAM2">      1.00000000</i>
   <i name="PARAM3">      0.00000000</i>
  </separator>
  <separator name="model GW" >
   <i type="int" name="MODEL_GW">     0</i>
   <i name="MODEL_EPS0">     26.47528198</i>
   <i name="MODEL_ALPHA">      1.00000000</i>
  </separator>
  <separator name="linear response parameters" >
   <i type="logical" name="LEPSILON"> F  </i>
   <i type="logical" name="LRPA"> F  </i>
   <i type="logical" name="LNABLA"> F  </i>
   <i type="logical" name="LVEL"> F  </i>
   <i type="int" name="KINTER">     0</i>
   <i name="CSHIFT">      0.10000000</i>
   <i name="OMEGAMAX">     -1.00000000</i>
   <i name="DEG_THRESHOLD">      0.00200000</i>
  </separator>
  <separator name="orbital magnetization" >
   <i type="logical" name="NUCIND"> F  </i>
   <v name="MAGPOS">      0.00000000      0.00000000      0.00000000</v>
   <i type="logical" name="LNICSALL"> T  </i>
   <i type="logical" name="ORBITALMAG"> F  </i>
   <i type="logical" name="LMAGBLOCH"> F  </i>
   <i type="logical" name="LCHIMAG"> F  </i>
   <i type="logical" name="LGAUGE"> T  </i>
   <i type="int" name="MAGATOM">     0</i>
   <v name="MAGDIPOL">      0.00000000      0.00000000      0.00000000</v>
   <v name="AVECCONST">      0.00000000      0.00000000      0.00000000</v>
  </separator>
  <separator name="response functions" >
   <i type="logical" name="LADDER"> F  </i>
   <i type="logical" name="LFXC"> F  </i>
   <i type="logical" name="LHARTREE"> T  </i>
   <i type="int" name="IBSE">     0</i>
   <v type="int" name="KPOINT">    -1     0     0     0</v>
   <i type="logical" name="LTCTE"> F  </i>
   <i type="logical" name="LTETE"> F  </i>
   <i type="logical" name="LTRIPLET"> F  </i>
   <i type="logical" name="LFXCEPS"> F  </i>
   <i type="logical" name="LFXHEG"> F  </i>
   <i type="int" name="NATURALO">     0</i>
   <i type="logical" name="L2ORDER"> F  </i>
   <i type="logical" name="LUSEW"> F  </i>
   <i name="ENCUTGW">     -2.00000000</i>
   <i name="ENCUTGWSOFT">     -2.00000000</i>
   <i name="ENCUTLF">     -1.00000000</i>
   <i type="int" name="LMAXMP2">    -1</i>
   <i name="SCISSOR">      0.00000000</i>
   <i type="int" name="NOMEGA">     0</i>
   <i type="int" name="NOMEGAR">     0</i>
   <i type="int" name="NBANDSGW">    -1</i>
   <i type="int" name="NBANDSO">    -1</i>
   <i type="int" name="NBANDSV">    -1</i>
   <i type="int" name="NELM">     1</i>
   <i type="int" name="NELMHF">     1</i>
   <i type="int" name="DIM">     3</i>
   <i type="int" name="ANTIRES">     0</i>
   <i name="OMEGAMAX">    -30.00000000</i>
   <i name="OMEGAMIN">    -30.00000000</i>
   <i name="OMEGATL">   -200.00000000</i>
   <i type="int" name="OMEGAGRID">     0</i>
   <i name="CSHIFT">     -0.10000000</i>
   <i type="logical" name="SELFENERGY"> F  </i>
   <i type="logical" name="LSPECTRAL"> F  </i>
   <i type="logical" name="LSPECTRALGW"> F  </i>
   <i type="logical" name="LSINGLES"> F  </i>
   <i type="logical" name="LFERMIGW"> F  </i>
   <i type="logical" name="ODDONLYGW"> F  </i>
   <i type="logical" name="EVENONLYGW"> F  </i>
   <i type="int" name="NKREDLFX">     1</i>
   <i type="int" name="NKREDLFY">     1</i>
   <i type="int" name="NKREDLFZ">     1</i>
   <i type="int" name="MAXMEM">  1800</i>
   <i type="int" name="TELESCOPE">     0</i>
   <i type="int" name="TAUPAR">     1</i>
   <i type="int" name="OMEGAPAR">    -1</i>
   <i name="LAMBDA">      1.00000000</i>
  </separator>
  <separator name="External order field" >
   <i name="OFIELD_KAPPA">      0.00000000</i>
   <v name="OFIELD_K">      0.00000000      0.00000000      0.00000000</v>
   <i name="OFIELD_Q6_NEAR">      0.00000000</i>
   <i name="OFIELD_Q6_FAR">      0.00000000</i>
   <i name="OFIELD_A">      0.00000000</i>
  </separator>
 </parameters>
 <atominfo>
  <atoms>       2 </atoms>
  <types>       1 </types>
  <array name="atoms" >
   <dimension dim="1">ion</dimension>
   <field type="string">element</field>
   <field type="int">atomtype</field>
   <set>
    <rc><c>Si</c><c>   1</c></rc>
    <rc><c>Si</c><c>   1</c></rc>
   </set>
  </array>
  <array name="atomtypes" >
   <dimension dim="1">type</dimension>
   <field type="int">atomspertype</field>
   <field type="string">element</field>
   <field>mass</field>
   <field>valence</field>
   <field type="string">pseudopotential</field>
   <set>
    <rc><c>   2</c><c>Si</c><c>     28.08500000</c><c>      4.00000000</c><c>  PAW_PBE Si 05Jan2001                  </c></rc>
   </set>
  </array>
 </atominfo>
 <structure name="initialpos" >
  <crystal>
   <varray name="basis" >
    <v>       4.45218409       0.00000000       0.00000000 </v>
    <v>       0.00000000       4.45218409       0.00000000 </v>
    <v>       0.00000000       0.00000000       4.45218409 </v>
   </varray>
   <i name="volume">     88.25093992 </i>
   <varray name="rec_basis" >
    <v>       0.22460886       0.00000000       0.00000000 </v>
    <v>       0.00000000       0.22460886       0.00000000 </v>
    <v>       0.00000000       0.00000000       0.22460886 </v>
   </varray>
  </crystal>
  <varray name="positions" >
   <v>       0.00000000       0.00000000       0.00000000 </v>
   <v>       0.50000000       0.50000000       0.50000000 </v>
  </varray>
 </structure>
 <calculation>
  <scstep>
   <time name="dav">    0.26    0.28</time>
   <time name="total">    0.31    0.35</time>
   <energy>
    <i name="alphaZ">      1.52579138 </i>
    <i name="ewald">   -188.32711811 </i>
    <i name="hartreedc">    -15.48760356 </i>
    <i name="XCdc">    -21.39869887 </i>
    <i name="pawpsdc">    176.24759923 </i>
    <i name="pawaedc">   -141.06103558 </i>
    <i name="eentropy">      0.00063531 </i>
    <i name="bandstr">    -11.57456818 </i>
    <i name="atom">    206.13149246 </i>
    <i name="e_fr_energy">      6.05649407 </i>
    <i name="e_wo_entrp">      6.05585876 </i>
    <i name="e_0_energy">      6.05633524 </i>
   </energy>
  </scstep>
  <scstep>
   <time name="dav">    0.42    0.44</time>
   <time name="total">    0.43    0.46</time>
   <energy>
    <i name="e_fr_energy">     -5.05616888 </i>
    <i name="e_wo_entrp">     -5.05639289 </i>
    <i name="e_0_energy">     -5.05622488 </i>
   </energy>
  </scstep>
  <scstep>
   <time name="dav">    0.27    0.28</time>
   <time name="total">    0.28    0.29</time>
   <energy>
    <i name="e_fr_energy">     -5.32400456 </i>
    <i name="e_wo_entrp">     -5.32407921 </i>
    <i name="e_0_energy">     -5.32402322 </i>
   </energy>
  </scstep>
  <scstep>
   <time name="dav">    0.28    0.29</time>
   <time name="total">    0.30    0.31</time>
   <energy>
    <i name="e_fr_energy">     -5.32660540 </i>
    <i name="e_wo_entrp">     -5.32670334 </i>
    <i name="e_0_energy">     -5.32662988 </i>
   </energy>
  </scstep>
  <scstep>
   <time name="dav">    0.27    0.26</time>
   <time name="total">    0.31    0.33</time>
   <energy>
    <i name="e_fr_energy">     -5.32664885 </i>
    <i name="e_wo_entrp">     -5.32674712 </i>
    <i name="e_0_energy">     -5.32667342 </i>
   </energy>
  </scstep>
  <scstep>
   <time name="dav">    0.24    0.25</time>
   <time name="total">    0.28    0.31</time>
   <energy>
    <i name="e_fr_energy">     -5.30436615 </i>
    <i name="e_wo_entrp">     -5.30440840 </i>
    <i name="e_0_energy">     -5.30437671 </i>
   </energy>
  </scstep>
  <scstep>
   <time name="dav">    0.24    0.25</time>
   <time name="total">    0.31    0.31</time>
   <energy>
    <i name="e_fr_energy">     -5.29713734 </i>
    <i name="e_wo_entrp">     -5.29712625 </i>
    <i name="e_0_energy">     -5.29713456 </i>
   </energy>
  </scstep>
  <scstep>
   <time name="dav">    0.26    0.26</time>
   <time name="total">    0.30    0.32</time>
   <energy>
    <i name="e_fr_energy">     -5.29798517 </i>
    <i name="e_wo_entrp">     -5.29799333 </i>
    <i name="e_0_energy">     -5.29798721 </i>
   </energy>
  </scstep>
  <scstep>
   <time name="dav">    0.16    0.15</time>
   <time name="total">    0.18    0.19</time>
   <energy>
    <i name="alphaZ">      1.52579138 </i>
    <i name="ewald">   -188.32711811 </i>
    <i name="hartreedc">    -13.19043874 </i>
    <i name="XCdc">    -21.72448659 </i>
    <i name="pawpsdc">    163.04543107 </i>
    <i name="pawaedc">   -127.75890699 </i>
    <i name="eentropy">      0.00001029 </i>
    <i name="bandstr">    -24.99979085 </i>
    <i name="atom">    206.13149246 </i>
    <i name="e_fr_energy">     -5.29801609 </i>
    <i name="e_wo_entrp">     -5.29802638 </i>
    <i name="e_0_energy">     -5.29801866 </i>
   </energy>
  </scstep>
  <structure>
   <crystal>
    <varray name="basis" >
     <v>       4.45218409       0.00000000       0.00000000 </v>
     <v>       0.00000000       4.45218409       0.00000000 </v>
     <v>       0.00000000       0.00000000       4.45218409 </v>
    </varray>
    <i name="volume">     88.25093992 </i>
    <varray name="rec_basis" >
     <v>       0.22460886       0.00000000       0.00000000 </v>
     <v>       0.00000000       0.22460886       0.00000000 </v>
     <v>       0.00000000       0.00000000       0.22460886 </v>
    </varray>
   </crystal>
   <varray name="positions" >
    <v>       0.00000000       0.00000000       0.00000000 </v>
    <v>       0.50000000       0.50000000       0.50000000 </v>
   </varray>
  </structure>
  <varray name="forces" >
   <v>       0.00000000       0.00000000       0.00000000 </v>
   <v>       0.00000000       0.00000000       0.00000000 </v>
  </varray>
  <varray name="stress" >
   <v>     -92.97042104       0.00000000       0.00000000 </v>
   <v>       0.00000000     -92.97042104       0.00000000 </v>
   <v>       0.00000000       0.00000000     -92.97042104 </v>
  </varray>
  <energy>
   <i name="e_fr_energy">     -5.29801609 </i>
   <i name="e_wo_entrp">     -5.29801866 </i>
   <i name="e_0_energy">      0.00001029 </i>
  </energy>
  <time name="totalsc">    3.70    3.91</time>
  <eigenvalues>
   <array>
    <dimension dim="1">band</dimension>
    <dimension dim="2">kpoint</dimension>
    <dimension dim="3">spin</dimension>
    <field>eigene</field>
    <field>occ</field>
    <set>
     <set comment="spin 1">
      <set comment="kpoint 1">
       <r>   -7.3381    1.0000 </r>
       <r>   -4.7037    1.0000 </r>
       <r>    0.4337    1.0204 </r>
       <r>    0.4337    1.0204 </r>
       <r>    0.4337    1.0204 </r>
       <r>    3.3791    0.0000 </r>
       <r>    3.3791    0.0000 </r>
       <r>    3.3791    0.0000 </r>
      </set>
      <set comment="kpoint 2">
       <r>   -7.2932    1.0000 </r>
       <r>   -4.7580    1.0000 </r>
       <r>    0.3538    1.0112 </r>
       <r>    0.4790    0.7480 </r>
       <r>    0.4790    0.7480 </r>
       <r>    3.1605    0.0000 </r>
       <r>    3.2998    0.0000 </r>
       <r>    3.2998    0.0000 </r>
      </set>
      <set comment="kpoint 3">
       <r>   -7.1598    1.0000 </r>
       <r>   -4.9214    1.0000 </r>
       <r>    0.2050    0.9997 </r>
       <r>    0.6134   -0.0462 </r>
       <r>    0.6134   -0.0462 </r>
       <r>    2.6382    0.0000 </r>
       <r>    3.0737    0.0000 </r>
       <r>    3.0737    0.0000 </r>
      </set>
      <set comment="kpoint 4">
       <r>   -6.9431    1.0000 </r>
       <r>   -5.1881    1.0000 </r>
       <r>    0.1341    1.0000 </r>
       <r>    0.8328    0.0001 </r>
       <r>    0.8328    0.0001 </r>
       <r>    2.0140    0.0000 </r>
       <r>    2.7340    0.0000 </r>
       <r>    2.7340    0.0000 </r>
      </set>
      <set comment="kpoint 5">
       <r>   -6.6526    1.0000 </r>
       <r>   -5.5339    1.0000 </r>
       <r>    0.2198    0.9994 </r>
       <r>    1.1298    0.0000 </r>
       <r>    1.1298    0.0000 </r>
       <r>    1.4072    0.0000 </r>
       <r>    2.3273    0.0000 </r>
       <r>    2.3273    0.0000 </r>
      </set>
      <set comment="kpoint 6">
       <r>   -6.3035    1.0000 </r>
       <r>   -5.9195    1.0000 </r>
       <r>    0.4750    0.7835 </r>
       <r>    0.8809    0.0000 </r>
       <r>    1.4920    0.0000 </r>
       <r>    1.4920    0.0000 </r>
       <r>    1.9005    0.0000 </r>
       <r>    1.9005    0.0000 </r>
      </set>
      <set comment="kpoint 7">
       <r>   -7.2486    1.0000 </r>
       <r>   -4.8061    1.0000 </r>
       <r>    0.2037    0.9997 </r>
       <r>    0.5237    0.2930 </r>
       <r>    0.5955   -0.0511 </r>
       <r>    2.8473    0.0000 </r>
       <r>    3.2297    0.0000 </r>
       <r>    3.3548    0.0000 </r>
      </set>
      <set comment="kpoint 8">
       <r>   -7.1165    1.0000 </r>
       <r>   -4.9534    1.0000 </r>
       <r>    0.0061    1.0000 </r>
       <r>    0.6566   -0.0088 </r>
       <r>    0.7759    0.0010 </r>
       <r>    2.2997    0.0000 </r>
       <r>    3.0262    0.0000 </r>
       <r>    3.2258    0.0000 </r>
      </set>
      <set comment="kpoint 9">
       <r>   -6.9021    1.0000 </r>
       <r>   -5.1996    1.0000 </r>
       <r>   -0.0960    1.0000 </r>
       <r>    0.8733    0.0000 </r>
       <r>    1.0176    0.0000 </r>
       <r>    1.6863    0.0000 </r>
       <r>    2.7128    0.0000 </r>
       <r>    2.9307    0.0000 </r>
      </set>
      <set comment="kpoint 10">
       <r>   -6.6155    1.0000 </r>
       <r>   -5.5268    1.0000 </r>
       <r>   -0.0351    1.0000 </r>
       <r>    1.0966    0.0000 </r>
       <r>    1.1657    0.0000 </r>
       <r>    1.3280    0.0000 </r>
       <r>    2.3286    0.0000 </r>
       <r>    2.5397    0.0000 </r>
      </set>
      <set comment="kpoint 11">
       <r>   -6.2726    1.0000 </r>
       <r>   -5.8982    1.0000 </r>
       <r>    0.1996    0.9998 </r>
       <r>    0.5875   -0.0461 </r>
       <r>    1.5208    0.0000 </r>
       <r>    1.6997    0.0000 </r>
       <r>    1.9182    0.0000 </r>
       <r>    2.1140    0.0000 </r>
      </set>
      <set comment="kpoint 12">
       <r>   -6.9884    1.0000 </r>
       <r>   -5.0566    1.0000 </r>
       <r>   -0.2870    1.0000 </r>
       <r>    0.7848    0.0007 </r>
       <r>    1.0343    0.0000 </r>
       <r>    1.7175    0.0000 </r>
       <r>    2.8817    0.0000 </r>
       <r>    3.2881    0.0000 </r>
      </set>
      <set comment="kpoint 13">
       <r>   -6.7815    1.0000 </r>
       <r>   -5.2440    1.0000 </r>
       <r>   -0.4775    1.0000 </r>
       <r>    0.9927    0.0000 </r>
       <r>    1.0993    0.0000 </r>
       <r>    1.3277    0.0000 </r>
       <r>    2.6418    0.0000 </r>
       <r>    3.1474    0.0000 </r>
      </set>
      <set comment="kpoint 14">
       <r>   -6.5073    1.0000 </r>
       <r>   -5.5140    1.0000 </r>
       <r>   -0.4903    1.0000 </r>
       <r>    0.5224    0.3061 </r>
       <r>    1.2706    0.0000 </r>
       <r>    1.6681    0.0000 </r>
       <r>    2.3247    0.0000 </r>
       <r>    2.8470    0.0000 </r>
      </set>
      <set comment="kpoint 15">
       <r>   -6.1844    1.0000 </r>
       <r>   -5.8407    1.0000 </r>
       <r>   -0.3110    1.0000 </r>
       <r>    0.0385    1.0000 </r>
       <r>    1.6027    0.0000 </r>
       <r>    1.9652    0.0000 </r>
       <r>    2.0528    0.0000 </r>
       <r>    2.4602    0.0000 </r>
      </set>
      <set comment="kpoint 16">
       <r>   -6.5888    1.0000 </r>
       <r>   -5.3444    1.0000 </r>
       <r>   -0.7764    1.0000 </r>
       <r>    0.4866    0.6754 </r>
       <r>    1.1841    0.0000 </r>
       <r>    1.6600    0.0000 </r>
       <r>    2.5049    0.0000 </r>
       <r>    3.1978    0.0000 </r>
      </set>
      <set comment="kpoint 17">
       <r>   -6.3383    1.0000 </r>
       <r>   -5.5205    1.0000 </r>
       <r>   -0.8958    1.0000 </r>
       <r>   -0.0699    1.0000 </r>
       <r>    1.4348    0.0000 </r>
       <r>    2.0187    0.0000 </r>
       <r>    2.2938    0.0000 </r>
       <r>    3.0573    0.0000 </r>
      </set>
      <set comment="kpoint 18">
       <r>   -6.0533    1.0000 </r>
       <r>   -5.7673    1.0000 </r>
       <r>   -0.8038    1.0000 </r>
       <r>   -0.5155    1.0000 </r>
       <r>    1.7242    0.0000 </r>
       <r>    2.0227    0.0000 </r>
       <r>    2.3980    0.0000 </r>
       <r>    2.7654    0.0000 </r>
      </set>
      <set comment="kpoint 19">
       <r>   -6.1277    1.0000 </r>
       <r>   -5.5792    1.0000 </r>
       <r>   -1.1404    1.0000 </r>
       <r>   -0.5889    1.0000 </r>
       <r>    1.6406    0.0000 </r>
       <r>    2.2104    0.0000 </r>
       <r>    2.3725    0.0000 </r>
       <r>    3.1128    0.0000 </r>
      </set>
      <set comment="kpoint 20">
       <r>   -5.9054    1.0000 </r>
       <r>   -5.7108    1.0000 </r>
       <r>   -1.1675    1.0000 </r>
       <r>   -0.9722    1.0000 </r>
       <r>    1.8612    0.0000 </r>
       <r>    2.0618    0.0000 </r>
       <r>    2.7124    0.0000 </r>
       <r>    2.9849    0.0000 </r>
      </set>
      <set comment="kpoint 21">
       <r>   -5.7780    1.0000 </r>
       <r>   -5.7081    1.0000 </r>
       <r>   -1.3309    1.0000 </r>
       <r>   -1.2609    1.0000 </r>
       <r>    1.9812    0.0000 </r>
       <r>    2.0525    0.0000 </r>
       <r>    2.9572    0.0000 </r>
       <r>    3.0616    0.0000 </r>
      </set>
      <set comment="kpoint 22">
       <r>   -7.2044    1.0000 </r>
       <r>   -4.8490    1.0000 </r>
       <r>    0.2505    0.9981 </r>
       <r>    0.2505    0.9981 </r>
       <r>    0.8348    0.0001 </r>
       <r>    2.5957    0.0000 </r>
       <r>    3.2653    0.0000 </r>
       <r>    3.2653    0.0000 </r>
      </set>
      <set comment="kpoint 23">
       <r>   -7.0735    1.0000 </r>
       <r>   -4.9822    1.0000 </r>
       <r>   -0.0258    1.0000 </r>
       <r>    0.3899    1.0433 </r>
       <r>    1.0858    0.0000 </r>
       <r>    2.0795    0.0000 </r>
       <r>    3.0123    0.0000 </r>
       <r>    3.2115    0.0000 </r>
      </set>
      <set comment="kpoint 24">
       <r>   -6.8616    1.0000 </r>
       <r>   -5.2100    1.0000 </r>
       <r>   -0.1797    1.0000 </r>
       <r>    0.6181   -0.0425 </r>
       <r>    1.3567    0.0000 </r>
       <r>    1.4870    0.0000 </r>
       <r>    2.6378    0.0000 </r>
       <r>    3.0250    0.0000 </r>
      </set>
      <set comment="kpoint 25">
       <r>   -6.5788    1.0000 </r>
       <r>   -5.5194    1.0000 </r>
       <r>   -0.1549    1.0000 </r>
       <r>    0.9144    0.0000 </r>
       <r>    0.9280    0.0000 </r>
       <r>    1.6674    0.0000 </r>
       <r>    2.1966    0.0000 </r>
       <r>    2.7346    0.0000 </r>
      </set>
      <set comment="kpoint 26">
       <r>   -6.2421    1.0000 </r>
       <r>   -5.8771    1.0000 </r>
       <r>    0.0537    1.0000 </r>
       <r>    0.4220    1.0432 </r>
       <r>    1.3081    0.0000 </r>
       <r>    1.7402    0.0000 </r>
       <r>    2.0162    0.0000 </r>
       <r>    2.3834    0.0000 </r>
      </set>
      <set comment="kpoint 27">
       <r>   -6.9467    1.0000 </r>
       <r>   -5.0763    1.0000 </r>
       <r>   -0.2375    1.0000 </r>
       <r>    0.3716    1.0264 </r>
       <r>    1.4123    0.0000 </r>
       <r>    1.5866    0.0000 </r>
       <r>    2.8634    0.0000 </r>
       <r>    3.1714    0.0000 </r>
      </set>
      <set comment="kpoint 28">
       <r>   -6.7422    1.0000 </r>
       <r>   -5.2502    1.0000 </r>
       <r>   -0.4465    1.0000 </r>
       <r>    0.5702   -0.0113 </r>
       <r>    1.0128    0.0000 </r>
       <r>    1.7235    0.0000 </r>
       <r>    2.5474    0.0000 </r>
       <r>    3.0829    0.0000 </r>
      </set>
      <set comment="kpoint 29">
       <r>   -6.4719    1.0000 </r>
       <r>   -5.5059    1.0000 </r>
       <r>   -0.4862    1.0000 </r>
       <r>    0.4621    0.8847 </r>
       <r>    0.8734    0.0000 </r>
       <r>    2.0403    0.0000 </r>
       <r>    2.1312    0.0000 </r>
       <r>    2.9148    0.0000 </r>
      </set>
      <set comment="kpoint 30">
       <r>   -6.1550    1.0000 </r>
       <r>   -5.8204    1.0000 </r>
       <r>   -0.3306    1.0000 </r>
       <r>   -0.0015    1.0000 </r>
       <r>    1.2523    0.0000 </r>
       <r>    1.6827    0.0000 </r>
       <r>    2.3620    0.0000 </r>
       <r>    2.6653    0.0000 </r>
      </set>
      <set comment="kpoint 31">
       <r>   -6.5519    1.0000 </r>
       <r>   -5.3436    1.0000 </r>
       <r>   -0.7250    1.0000 </r>
       <r>    0.4535    0.9390 </r>
       <r>    0.7328    0.0036 </r>
       <r>    2.0511    0.0000 </r>
       <r>    2.3935    0.0000 </r>
       <r>    3.0467    0.0000 </r>
      </set>
      <set comment="kpoint 32">
       <r>   -6.3052    1.0000 </r>
       <r>   -5.5104    1.0000 </r>
       <r>   -0.8515    1.0000 </r>
       <r>   -0.0746    1.0000 </r>
       <r>    1.0106    0.0000 </r>
       <r>    2.1135    0.0000 </r>
       <r>    2.3514    0.0000 </r>
       <r>    2.9644    0.0000 </r>
      </set>
      <set comment="kpoint 33">
       <r>   -6.0259    1.0000 </r>
       <r>   -5.7478    1.0000 </r>
       <r>   -0.7733    1.0000 </r>
       <r>   -0.5011    1.0000 </r>
       <r>    1.3606    0.0000 </r>
       <r>    1.7457    0.0000 </r>
       <r>    2.6182    0.0000 </r>
       <r>    2.8276    0.0000 </r>
      </set>
      <set comment="kpoint 34">
       <r>   -6.0981    1.0000 </r>
       <r>   -5.5654    1.0000 </r>
       <r>   -1.0879    1.0000 </r>
       <r>   -0.5664    1.0000 </r>
       <r>    1.2527    0.0000 </r>
       <r>    2.0336    0.0000 </r>
       <r>    2.5995    0.0000 </r>
       <r>    2.9315    0.0000 </r>
      </set>
      <set comment="kpoint 35">
       <r>   -5.8807    1.0000 </r>
       <r>   -5.6918    1.0000 </r>
       <r>   -1.1191    1.0000 </r>
       <r>   -0.9339    1.0000 </r>
       <r>    1.5455    0.0000 </r>
       <r>    1.8308    0.0000 </r>
       <r>    2.7748    0.0000 </r>
       <r>    2.8746    0.0000 </r>
      </set>
      <set comment="kpoint 36">
       <r>   -5.7561    1.0000 </r>
       <r>   -5.6883    1.0000 </r>
       <r>   -1.2779    1.0000 </r>
       <r>   -1.2114    1.0000 </r>
       <r>    1.7339    0.0000 </r>
       <r>    1.8442    0.0000 </r>
       <r>    2.8410    0.0000 </r>
       <r>    2.8631    0.0000 </r>
      </set>
      <set comment="kpoint 37">
       <r>   -6.8239    1.0000 </r>
       <r>   -5.1438    1.0000 </r>
       <r>   -0.0900    1.0000 </r>
       <r>   -0.0900    1.0000 </r>
       <r>    1.2255    0.0000 </r>
       <r>    1.8137    0.0000 </r>
       <r>    2.8510    0.0000 </r>
       <r>    2.8510    0.0000 </r>
      </set>
      <set comment="kpoint 38">
       <r>   -6.6270    1.0000 </r>
       <r>   -5.2778    1.0000 </r>
       <r>   -0.4120    1.0000 </r>
       <r>    0.1525    1.0000 </r>
       <r>    0.7403    0.0030 </r>
       <r>    2.1490    0.0000 </r>
       <r>    2.3970    0.0000 </r>
       <r>    2.8656    0.0000 </r>
      </set>
      <set comment="kpoint 39">
       <r>   -6.3691    1.0000 </r>
       <r>   -5.4894    1.0000 </r>
       <r>   -0.5334    1.0000 </r>
       <r>    0.2483    0.9982 </r>
       <r>    0.4841    0.6992 </r>
       <r>    1.8839    0.0000 </r>
       <r>    2.4319    0.0000 </r>
       <r>    2.8671    0.0000 </r>
      </set>
      <set comment="kpoint 40">
       <r>   -6.0715    1.0000 </r>
       <r>   -5.7654    1.0000 </r>
       <r>   -0.4426    1.0000 </r>
       <r>   -0.1663    1.0000 </r>
       <r>    0.8953    0.0000 </r>
       <r>    1.3702    0.0000 </r>
       <r>    2.6578    0.0000 </r>
       <r>    2.8060    0.0000 </r>
      </set>
      <set comment="kpoint 41">
       <r>   -6.4442    1.0000 </r>
       <r>   -5.3492    1.0000 </r>
       <r>   -0.5716    1.0000 </r>
       <r>    0.1498    1.0000 </r>
       <r>    0.3254    0.9976 </r>
       <r>    2.1944    0.0000 </r>
       <r>    2.4629    0.0000 </r>
       <r>    2.6484    0.0000 </r>
      </set>
      <set comment="kpoint 42">
       <r>   -6.2096    1.0000 </r>
       <r>   -5.4873    1.0000 </r>
       <r>   -0.7287    1.0000 </r>
       <r>   -0.1159    1.0000 </r>
       <r>    0.4297    1.0303 </r>
       <r>    1.7744    0.0000 </r>
       <r>    2.6515    0.0000 </r>
       <r>    2.6626    0.0000 </r>
      </set>
      <set comment="kpoint 43">
       <r>   -5.9483    1.0000 </r>
       <r>   -5.6950    1.0000 </r>
       <r>   -0.7010    1.0000 </r>
       <r>   -0.4818    1.0000 </r>
       <r>    0.8236    0.0001 </r>
       <r>    1.2860    0.0000 </r>
       <r>    2.7230    0.0000 </r>
       <r>    2.7451    0.0000 </r>
      </set>
      <set comment="kpoint 44">
       <r>   -6.0135    1.0000 </r>
       <r>   -5.5302    1.0000 </r>
       <r>   -0.9311    1.0000 </r>
       <r>   -0.5143    1.0000 </r>
       <r>    0.6402   -0.0220 </r>
       <r>    1.6567    0.0000 </r>
       <r>    2.4709    0.0000 </r>
       <r>    2.7227    0.0000 </r>
      </set>
      <set comment="kpoint 45">
       <r>   -5.8111    1.0000 </r>
       <r>   -5.6399    1.0000 </r>
       <r>   -0.9771    1.0000 </r>
       <r>   -0.8271    1.0000 </r>
       <r>    0.9765    0.0000 </r>
       <r>    1.3549    0.0000 </r>
       <r>    2.5095    0.0000 </r>
       <r>    2.6437    0.0000 </r>
      </set>
      <set comment="kpoint 46">
       <r>   -5.6951    1.0000 </r>
       <r>   -5.6340    1.0000 </r>
       <r>   -1.1195    1.0000 </r>
       <r>   -1.0653    1.0000 </r>
       <r>    1.2141    0.0000 </r>
       <r>    1.3797    0.0000 </r>
       <r>    2.3693    0.0000 </r>
       <r>    2.4587    0.0000 </r>
      </set>
      <set comment="kpoint 47">
       <r>   -6.2753    1.0000 </r>
       <r>   -5.3832    1.0000 </r>
       <r>   -0.3187    1.0000 </r>
       <r>   -0.3187    1.0000 </r>
       <r>    0.0697    1.0000 </r>
       <r>    2.1132    0.0000 </r>
       <r>    2.1132    0.0000 </r>
       <r>    2.6872    0.0000 </r>
      </set>
      <set comment="kpoint 48">
       <r>   -6.0631    1.0000 </r>
       <r>   -5.4715    1.0000 </r>
       <r>   -0.6003    1.0000 </r>
       <r>   -0.2539    1.0000 </r>
       <r>    0.0291    1.0000 </r>
       <r>    1.5346    0.0000 </r>
       <r>    2.1993    0.0000 </r>
       <r>    2.7152    0.0000 </r>
      </set>
      <set comment="kpoint 49">
       <r>   -5.8352    1.0000 </r>
       <r>   -5.6269    1.0000 </r>
       <r>   -0.6653    1.0000 </r>
       <r>   -0.5304    1.0000 </r>
       <r>    0.4639    0.8718 </r>
       <r>    0.9729    0.0000 </r>
       <r>    2.3869    0.0000 </r>
       <r>    2.5888    0.0000 </r>
      </set>
      <set comment="kpoint 50">
       <r>   -5.8868    1.0000 </r>
       <r>   -5.4919    1.0000 </r>
       <r>   -0.6720    1.0000 </r>
       <r>   -0.4805    1.0000 </r>
       <r>    0.0889    1.0000 </r>
       <r>    1.3381    0.0000 </r>
       <r>    1.8776    0.0000 </r>
       <r>    2.5431    0.0000 </r>
      </set>
      <set comment="kpoint 51">
       <r>   -5.7114    1.0000 </r>
       <r>   -5.5716    1.0000 </r>
       <r>   -0.7572    1.0000 </r>
       <r>   -0.6835    1.0000 </r>
       <r>    0.4504    0.9556 </r>
       <r>    0.9095    0.0000 </r>
       <r>    1.9797    0.0000 </r>
       <r>    2.2574    0.0000 </r>
      </set>
      <set comment="kpoint 52">
       <r>   -5.6098    1.0000 </r>
       <r>   -5.5601    1.0000 </r>
       <r>   -0.8577    1.0000 </r>
       <r>   -0.8311    1.0000 </r>
       <r>    0.6786    0.0016 </r>
       <r>    0.8970    0.0000 </r>
       <r>    1.7471    0.0000 </r>
       <r>    1.9079    0.0000 </r>
      </set>
      <set comment="kpoint 53">
       <r>   -5.7406    1.0000 </r>
       <r>   -5.4774    1.0000 </r>
       <r>   -0.5155    1.0000 </r>
       <r>   -0.3147    1.0000 </r>
       <r>   -0.3147    1.0000 </r>
       <r>    1.2558    0.0000 </r>
       <r>    1.2558    0.0000 </r>
       <r>    2.1786    0.0000 </r>
      </set>
      <set comment="kpoint 54">
       <r>   -5.6055    1.0000 </r>
       <r>   -5.5124    1.0000 </r>
       <r>   -0.5727    1.0000 </r>
       <r>   -0.5317    1.0000 </r>
       <r>    0.1343    1.0000 </r>
       <r>    0.6639   -0.0044 </r>
       <r>    1.4311    0.0000 </r>
       <r>    1.7721    0.0000 </r>
      </set>
      <set comment="kpoint 55">
       <r>   -5.5236    1.0000 </r>
       <r>   -5.4907    1.0000 </r>
       <r>   -0.5353    1.0000 </r>
       <r>   -0.4960    1.0000 </r>
       <r>    0.2472    0.9983 </r>
       <r>    0.5548    0.0540 </r>
       <r>    1.1046    0.0000 </r>
       <r>    1.3239    0.0000 </r>
      </set>
      <set comment="kpoint 56">
       <r>   -5.4643    1.0000 </r>
       <r>   -5.4527    1.0000 </r>
       <r>   -0.2545    1.0000 </r>
       <r>   -0.0405    1.0000 </r>
       <r>   -0.0405    1.0000 </r>
       <r>    0.4987    0.5511 </r>
       <r>    0.4987    0.5511 </r>
       <r>    0.8075    0.0002 </r>
      </set>
     </set>
    </set>
   </array>
  </eigenvalues>
  <separator name="orbital magnetization" >
   <v name="MAGDIPOLOUT">      0.00000000      0.00000000      0.00000000</v>
  </separator>
  <dos>
   <i name="efermi">      0.50352340 </i>
   <total>
    <array>
     <dimension dim="1">gridpoints</dimension>
     <dimension dim="2">spin</dimension>
     <field>energy</field>
     <field>total</field>
     <field>integrated</field>
     <set>
      <set comment="spin 1">
       <r>    -8.3381     0.0000     0.0000 </r>
       <r>    -8.2958     0.0000     0.0000 </r>
       <r>    -8.2534     0.0000     0.0000 </r>
       <r>    -8.2110     0.0000     0.0000 </r>
       <r>    -8.1686     0.0000     0.0000 </r>
       <r>    -8.1262     0.0000     0.0000 </r>
       <r>    -8.0838     0.0000     0.0000 </r>
       <r>    -8.0414     0.0000     0.0000 </r>
       <r>    -7.9990     0.0000     0.0000 </r>
       <r>    -7.9566     0.0000     0.0000 </r>
       <r>    -7.9142     0.0000     0.0000 </r>
       <r>    -7.8718     0.0000     0.0000 </r>
       <r>    -7.8294     0.0000     0.0000 </r>
       <r>    -7.7871     0.0000     0.0000 </r>
       <r>    -7.7447     0.0000     0.0000 </r>
       <r>    -7.7023     0.0000     0.0000 </r>
       <r>    -7.6599     0.0000     0.0000 </r>
       <r>    -7.6175     0.0000     0.0000 </r>
       <r>    -7.5751     0.0002     0.0000 </r>
       <r>    -7.5327     0.0008     0.0000 </r>
       <r>    -7.4903     0.0010     0.0001 </r>
       <r>    -7.4479    -0.0023     0.0000 </r>
       <r>    -7.4055    -0.0099    -0.0004 </r>
       <r>    -7.3631    -0.0016    -0.0005 </r>
       <r>    -7.3208     0.0661     0.0023 </r>
       <r>    -7.2784     0.1917     0.0104 </r>
       <r>    -7.2360     0.2801     0.0223 </r>
       <r>    -7.1936     0.2962     0.0349 </r>
       <r>    -7.1512     0.3880     0.0513 </r>
       <r>    -7.1088     0.5875     0.0762 </r>
       <r>    -7.0664     0.6223     0.1026 </r>
       <r>    -7.0240     0.4402     0.1212 </r>
       <r>    -6.9816     0.4238     0.1392 </r>
       <r>    -6.9392     0.6933     0.1686 </r>
       <r>    -6.8968     0.8827     0.2060 </r>
       <r>    -6.8545     0.8006     0.2400 </r>
       <r>    -6.8121     0.7364     0.2712 </r>
       <r>    -6.7697     0.8943     0.3091 </r>
       <r>    -6.7273     0.9163     0.3479 </r>
       <r>    -6.6849     0.6591     0.3759 </r>
       <r>    -6.6425     0.6994     0.4055 </r>
       <r>    -6.6001     1.1399     0.4538 </r>
       <r>    -6.5577     1.3709     0.5120 </r>
       <r>    -6.5153     1.3339     0.5685 </r>
       <r>    -6.4729     1.3081     0.6240 </r>
       <r>    -6.4305     1.0937     0.6703 </r>
       <r>    -6.3882     0.7842     0.7036 </r>
       <r>    -6.3458     0.9496     0.7438 </r>
       <r>    -6.3034     1.4734     0.8063 </r>
       <r>    -6.2610     1.7655     0.8811 </r>
       <r>    -6.2186     1.7924     0.9571 </r>
       <r>    -6.1762     1.7435     1.0310 </r>
       <r>    -6.1338     1.6298     1.1001 </r>
       <r>    -6.0914     1.7078     1.1725 </r>
       <r>    -6.0490     1.9923     1.2569 </r>
       <r>    -6.0066     1.8780     1.3366 </r>
       <r>    -5.9642     1.4966     1.4000 </r>
       <r>    -5.9219     1.8112     1.4768 </r>
       <r>    -5.8795     2.7401     1.5929 </r>
       <r>    -5.8371     3.2766     1.7318 </r>
       <r>    -5.7947     3.3404     1.8734 </r>
       <r>    -5.7523     3.7538     2.0326 </r>
       <r>    -5.7099     4.4791     2.2224 </r>
       <r>    -5.6675     4.3824     2.4082 </r>
       <r>    -5.6251     3.4179     2.5531 </r>
       <r>    -5.5827     3.3575     2.6954 </r>
       <r>    -5.5403     5.1955     2.9157 </r>
       <r>    -5.4979     6.7596     3.2022 </r>
       <r>    -5.4556     5.2369     3.4242 </r>
       <r>    -5.4132     1.9845     3.5083 </r>
       <r>    -5.3708     0.3780     3.5244 </r>
       <r>    -5.3284     0.6720     3.5528 </r>
       <r>    -5.2860     1.3591     3.6104 </r>
       <r>    -5.2436     1.8587     3.6892 </r>
       <r>    -5.2012     1.8073     3.7659 </r>
       <r>    -5.1588     1.0935     3.8122 </r>
       <r>    -5.1164     0.4589     3.8317 </r>
       <r>    -5.0740     0.3824     3.8479 </r>
       <r>    -5.0316     0.5462     3.8710 </r>
       <r>    -4.9893     0.6959     3.9005 </r>
       <r>    -4.9469     0.7425     3.9320 </r>
       <r>    -4.9045     0.5390     3.9549 </r>
       <r>    -4.8621     0.2789     3.9667 </r>
       <r>    -4.8197     0.2370     3.9767 </r>
       <r>    -4.7773     0.2768     3.9885 </r>
       <r>    -4.7349     0.2029     3.9971 </r>
       <r>    -4.6925     0.0752     4.0002 </r>
       <r>    -4.6501     0.0038     4.0004 </r>
       <r>    -4.6077    -0.0085     4.0001 </r>
       <r>    -4.5653    -0.0028     3.9999 </r>
       <r>    -4.5230     0.0005     4.0000 </r>
       <r>    -4.4806     0.0007     4.0000 </r>
       <r>    -4.4382     0.0003     4.0000 </r>
       <r>    -4.3958     0.0001     4.0000 </r>
       <r>    -4.3534     0.0000     4.0000 </r>
       <r>    -4.3110     0.0000     4.0000 </r>
       <r>    -4.2686     0.0000     4.0000 </r>
       <r>    -4.2262     0.0000     4.0000 </r>
       <r>    -4.1838     0.0000     4.0000 </r>
       <r>    -4.1414     0.0000     4.0000 </r>
       <r>    -4.0990     0.0000     4.0000 </r>
       <r>    -4.0567     0.0000     4.0000 </r>
       <r>    -4.0143     0.0000     4.0000 </r>
       <r>    -3.9719     0.0000     4.0000 </r>
       <r>    -3.9295     0.0000     4.0000 </r>
       <r>    -3.8871     0.0000     4.0000 </r>
       <r>    -3.8447     0.0000     4.0000 </r>
       <r>    -3.8023     0.0000     4.0000 </r>
       <r>    -3.7599     0.0000     4.0000 </r>
       <r>    -3.7175     0.0000     4.0000 </r>
       <r>    -3.6751     0.0000     4.0000 </r>
       <r>    -3.6327     0.0000     4.0000 </r>
       <r>    -3.5904     0.0000     4.0000 </r>
       <r>    -3.5480     0.0000     4.0000 </r>
       <r>    -3.5056     0.0000     4.0000 </r>
       <r>    -3.4632     0.0000     4.0000 </r>
       <r>    -3.4208     0.0000     4.0000 </r>
       <r>    -3.3784     0.0000     4.0000 </r>
       <r>    -3.3360     0.0000     4.0000 </r>
       <r>    -3.2936     0.0000     4.0000 </r>
       <r>    -3.2512     0.0000     4.0000 </r>
       <r>    -3.2088     0.0000     4.0000 </r>
       <r>    -3.1664     0.0000     4.0000 </r>
       <r>    -3.1241     0.0000     4.0000 </r>
       <r>    -3.0817     0.0000     4.0000 </r>
       <r>    -3.0393     0.0000     4.0000 </r>
       <r>    -2.9969     0.0000     4.0000 </r>
       <r>    -2.9545     0.0000     4.0000 </r>
       <r>    -2.9121     0.0000     4.0000 </r>
       <r>    -2.8697     0.0000     4.0000 </r>
       <r>    -2.8273     0.0000     4.0000 </r>
       <r>    -2.7849     0.0000     4.0000 </r>
       <r>    -2.7425     0.0000     4.0000 </r>
       <r>    -2.7001     0.0000     4.0000 </r>
       <r>    -2.6578     0.0000     4.0000 </r>
       <r>    -2.6154     0.0000     4.0000 </r>
       <r>    -2.5730     0.0000     4.0000 </r>
       <r>    -2.5306     0.0000     4.0000 </r>
       <r>    -2.4882     0.0000     4.0000 </r>
       <r>    -2.4458     0.0000     4.0000 </r>
       <r>    -2.4034     0.0000     4.0000 </r>
       <r>    -2.3610     0.0000     4.0000 </r>
       <r>    -2.3186     0.0000     4.0000 </r>
       <r>    -2.2762     0.0000     4.0000 </r>
       <r>    -2.2338     0.0000     4.0000 </r>
       <r>    -2.1915     0.0000     4.0000 </r>
       <r>    -2.1491     0.0000     4.0000 </r>
       <r>    -2.1067     0.0000     4.0000 </r>
       <r>    -2.0643     0.0000     4.0000 </r>
       <r>    -2.0219     0.0000     4.0000 </r>
       <r>    -1.9795     0.0000     4.0000 </r>
       <r>    -1.9371     0.0000     4.0000 </r>
       <r>    -1.8947     0.0000     4.0000 </r>
       <r>    -1.8523     0.0000     4.0000 </r>
       <r>    -1.8099     0.0000     4.0000 </r>
       <r>    -1.7675     0.0000     4.0000 </r>
       <r>    -1.7252     0.0000     4.0000 </r>
       <r>    -1.6828     0.0000     4.0000 </r>
       <r>    -1.6404     0.0001     4.0000 </r>
       <r>    -1.5980     0.0005     4.0000 </r>
       <r>    -1.5556     0.0019     4.0001 </r>
       <r>    -1.5132     0.0026     4.0002 </r>
       <r>    -1.4708    -0.0057     4.0000 </r>
       <r>    -1.4284    -0.0251     3.9989 </r>
       <r>    -1.3860    -0.0046     3.9987 </r>
       <r>    -1.3436     0.1540     4.0052 </r>
       <r>    -1.3012     0.4397     4.0239 </r>
       <r>    -1.2589     0.6490     4.0514 </r>
       <r>    -1.2165     0.7269     4.0822 </r>
       <r>    -1.1741     1.0270     4.1257 </r>
       <r>    -1.1317     1.6323     4.1949 </r>
       <r>    -1.0893     1.8163     4.2719 </r>
       <r>    -1.0469     1.2685     4.3257 </r>
       <r>    -1.0045     0.9783     4.3672 </r>
       <r>    -0.9621     1.5015     4.4308 </r>
       <r>    -0.9197     2.0371     4.5172 </r>
       <r>    -0.8773     2.2398     4.6121 </r>
       <r>    -0.8349     2.5713     4.7211 </r>
       <r>    -0.7925     3.0265     4.8494 </r>
       <r>    -0.7502     3.4269     4.9947 </r>
       <r>    -0.7078     3.5479     5.1451 </r>
       <r>    -0.6654     2.8216     5.2647 </r>
       <r>    -0.6230     1.6669     5.3354 </r>
       <r>    -0.5806     1.8312     5.4130 </r>
       <r>    -0.5382     3.9701     5.5813 </r>
       <r>    -0.4958     6.0982     5.8398 </r>
       <r>    -0.4534     5.6541     6.0795 </r>
       <r>    -0.4110     3.0168     6.2074 </r>
       <r>    -0.3686     1.1162     6.2547 </r>
       <r>    -0.3262     1.2172     6.3063 </r>
       <r>    -0.2839     1.7810     6.3818 </r>
       <r>    -0.2415     1.5809     6.4488 </r>
       <r>    -0.1991     1.1924     6.4993 </r>
       <r>    -0.1567     1.4104     6.5591 </r>
       <r>    -0.1143     2.1509     6.6503 </r>
       <r>    -0.0719     2.8387     6.7706 </r>
       <r>    -0.0295     3.0883     6.9016 </r>
       <r>     0.0129     2.8749     7.0234 </r>
       <r>     0.0553     2.2797     7.1201 </r>
       <r>     0.0977     1.6442     7.1898 </r>
       <r>     0.1401     1.4521     7.2513 </r>
       <r>     0.1824     1.6390     7.3208 </r>
       <r>     0.2248     1.7387     7.3945 </r>
       <r>     0.2672     1.4278     7.4550 </r>
       <r>     0.3096     0.8427     7.4908 </r>
       <r>     0.3520     0.6906     7.5200 </r>
       <r>     0.3944     1.6463     7.5898 </r>
       <r>     0.4368     3.3465     7.7317 </r>
       <r>     0.4792     4.1974     7.9096 </r>
       <r>     0.5216     3.4529     8.0560 </r>
       <r>     0.5640     2.4679     8.1606 </r>
       <r>     0.6064     2.2617     8.2565 </r>
       <r>     0.6487     2.2350     8.3512 </r>
       <r>     0.6911     1.8275     8.4287 </r>
       <r>     0.7335     1.3509     8.4860 </r>
       <r>     0.7759     1.2852     8.5404 </r>
       <r>     0.8183     1.7779     8.6158 </r>
       <r>     0.8607     2.6637     8.7287 </r>
       <r>     0.9031     3.3423     8.8704 </r>
       <r>     0.9455     3.4401     9.0162 </r>
       <r>     0.9879     3.3858     9.1598 </r>
       <r>     1.0303     3.1980     9.2953 </r>
       <r>     1.0727     2.5605     9.4039 </r>
       <r>     1.1150     1.8198     9.4810 </r>
       <r>     1.1574     1.2787     9.5352 </r>
       <r>     1.1998     1.2193     9.5869 </r>
       <r>     1.2422     1.9938     9.6714 </r>
       <r>     1.2846     3.2853     9.8107 </r>
       <r>     1.3270     4.3974     9.9971 </r>
       <r>     1.3694     4.5582    10.1903 </r>
       <r>     1.4118     3.3923    10.3341 </r>
       <r>     1.4542     1.9193    10.4155 </r>
       <r>     1.4966     1.4401    10.4765 </r>
       <r>     1.5390     1.6878    10.5481 </r>
       <r>     1.5813     1.6686    10.6188 </r>
       <r>     1.6237     1.6965    10.6907 </r>
       <r>     1.6661     2.8089    10.8098 </r>
       <r>     1.7085     4.4895    11.0001 </r>
       <r>     1.7509     4.9720    11.2109 </r>
       <r>     1.7933     3.8458    11.3739 </r>
       <r>     1.8357     2.6278    11.4853 </r>
       <r>     1.8781     2.2172    11.5793 </r>
       <r>     1.9205     2.0208    11.6650 </r>
       <r>     1.9629     2.0710    11.7528 </r>
       <r>     2.0053     2.9956    11.8797 </r>
       <r>     2.0476     4.0969    12.0534 </r>
       <r>     2.0900     4.2108    12.2319 </r>
       <r>     2.1324     3.4973    12.3802 </r>
       <r>     2.1748     2.6545    12.4927 </r>
       <r>     2.2172     1.9346    12.5747 </r>
       <r>     2.2596     1.5983    12.6424 </r>
       <r>     2.3020     2.1674    12.7343 </r>
       <r>     2.3444     3.5395    12.8844 </r>
       <r>     2.3868     4.3947    13.0707 </r>
       <r>     2.4292     3.8742    13.2349 </r>
       <r>     2.4716     2.9222    13.3588 </r>
       <r>     2.5139     2.4860    13.4641 </r>
       <r>     2.5563     2.5188    13.5709 </r>
       <r>     2.5987     3.3543    13.7131 </r>
       <r>     2.6411     5.0633    13.9278 </r>
       <r>     2.6835     6.1407    14.1881 </r>
       <r>     2.7259     5.5634    14.4239 </r>
       <r>     2.7683     4.2194    14.6028 </r>
       <r>     2.8107     3.6154    14.7560 </r>
       <r>     2.8531     4.1563    14.9322 </r>
       <r>     2.8955     4.4379    15.1203 </r>
       <r>     2.9379     3.5978    15.2729 </r>
       <r>     2.9802     2.6986    15.3872 </r>
       <r>     3.0226     2.5697    15.4962 </r>
       <r>     3.0650     2.6288    15.6076 </r>
       <r>     3.1074     2.1556    15.6990 </r>
       <r>     3.1498     1.5387    15.7642 </r>
       <r>     3.1922     1.4322    15.8249 </r>
       <r>     3.2346     1.5232    15.8895 </r>
       <r>     3.2770     1.2617    15.9430 </r>
       <r>     3.3194     0.7707    15.9757 </r>
       <r>     3.3618     0.3890    15.9922 </r>
       <r>     3.4042     0.1670    15.9992 </r>
       <r>     3.4465     0.0373    16.0008 </r>
       <r>     3.4889    -0.0130    16.0003 </r>
       <r>     3.5313    -0.0098    15.9999 </r>
       <r>     3.5737     0.0004    15.9999 </r>
       <r>     3.6161     0.0021    16.0000 </r>
       <r>     3.6585     0.0008    16.0000 </r>
       <r>     3.7009     0.0002    16.0000 </r>
       <r>     3.7433     0.0000    16.0000 </r>
       <r>     3.7857     0.0000    16.0000 </r>
       <r>     3.8281     0.0000    16.0000 </r>
       <r>     3.8705     0.0000    16.0000 </r>
       <r>     3.9128     0.0000    16.0000 </r>
       <r>     3.9552     0.0000    16.0000 </r>
       <r>     3.9976     0.0000    16.0000 </r>
       <r>     4.0400     0.0000    16.0000 </r>
       <r>     4.0824     0.0000    16.0000 </r>
       <r>     4.1248     0.0000    16.0000 </r>
       <r>     4.1672     0.0000    16.0000 </r>
       <r>     4.2096     0.0000    16.0000 </r>
       <r>     4.2520     0.0000    16.0000 </r>
       <r>     4.2944     0.0000    16.0000 </r>
       <r>     4.3368     0.0000    16.0000 </r>
       <r>     4.3791     0.0000    16.0000 </r>
      </set>
     </set>
    </array>
   </total>
  </dos>
 </calculation>
 <structure name="finalpos" >
  <crystal>
   <varray name="basis" >
    <v>       4.45218409       0.00000000       0.00000000 </v>
    <v>       0.00000000       4.45218409       0.00000000 </v>
    <v>       0.00000000       0.00000000       4.45218409 </v>
   </varray>
   <i name="volume">     88.25093992 </i>
   <varray name="rec_basis" >
    <v>       0.22460886       0.00000000       0.00000000 </v>
    <v>       0.00000000       0.22460886       0.00000000 </v>
    <v>       0.00000000       0.00000000       0.22460886 </v>
   </varray>
  </crystal>
  <varray name="positions" >
   <v>       0.00000000       0.00000000       0.00000000 </v>
   <v>       0.50000000       0.50000000       0.50000000 </v>
  </varray>
 </structure>
</modeling>
