<?xml version="1.0" encoding="ISO-8859-1"?>
<modeling>
 <generator>
  <i name="program" type="string">vasp </i>
  <i name="version" type="string">5.4.1  </i>
  <i name="subversion" type="string">24Jun15 (build Jul  8 2015 13:29:37) complex                          parallel </i>
  <i name="platform" type="string">FX10FRT </i>
  <i name="date" type="string">2016 02 20 </i>
  <i name="time" type="string">06:59:48 </i>
 </generator>
 <incar>
  <i type="string" name="PREC">accurate</i>
  <i type="string" name="ALGO"> Normal</i>
  <i type="int" name="ISPIN">     1</i>
  <i type="int" name="IBRION">    -1</i>
  <i name="EDIFF">      0.00010000</i>
  <i type="int" name="NSW">     0</i>
  <i type="int" name="ISIF">     2</i>
  <i name="ENCUT">    400.00000000</i>
  <i type="int" name="ISMEAR">     2</i>
  <i name="SIGMA">      0.10000000</i>
  <i type="int" name="NWRITE">     1</i>
  <v type="int" name="KPOINT_BSE">    -1     0     0     0</v>
 </incar>
 <kpoints>
  <generation param="Monkhorst-Pack">
   <v type="int" name="divisions">      16       16       16 </v>
   <v name="usershift">      0.00000000       0.00000000       0.00000000 </v>
   <v name="genvec1">      0.06250000       0.00000000       0.00000000 </v>
   <v name="genvec2">      0.00000000       0.06250000       0.00000000 </v>
   <v name="genvec3">      0.00000000       0.00000000       0.06250000 </v>
   <v name="shift">      0.50000000       0.50000000       0.50000000 </v>
  </generation>
  <varray name="kpointlist" >
   <v>       0.03125000       0.03125000       0.03125000 </v>
   <v>       0.09375000       0.03125000       0.03125000 </v>
   <v>       0.15625000       0.03125000       0.03125000 </v>
   <v>       0.21875000       0.03125000       0.03125000 </v>
   <v>       0.28125000       0.03125000       0.03125000 </v>
   <v>       0.34375000       0.03125000       0.03125000 </v>
   <v>       0.40625000       0.03125000       0.03125000 </v>
   <v>       0.46875000       0.03125000       0.03125000 </v>
   <v>       0.09375000       0.09375000       0.03125000 </v>
   <v>       0.15625000       0.09375000       0.03125000 </v>
   <v>       0.21875000       0.09375000       0.03125000 </v>
   <v>       0.28125000       0.09375000       0.03125000 </v>
   <v>       0.34375000       0.09375000       0.03125000 </v>
   <v>       0.40625000       0.09375000       0.03125000 </v>
   <v>       0.46875000       0.09375000       0.03125000 </v>
   <v>       0.15625000       0.15625000       0.03125000 </v>
   <v>       0.21875000       0.15625000       0.03125000 </v>
   <v>       0.28125000       0.15625000       0.03125000 </v>
   <v>       0.34375000       0.15625000       0.03125000 </v>
   <v>       0.40625000       0.15625000       0.03125000 </v>
   <v>       0.46875000       0.15625000       0.03125000 </v>
   <v>       0.21875000       0.21875000       0.03125000 </v>
   <v>       0.28125000       0.21875000       0.03125000 </v>
   <v>       0.34375000       0.21875000       0.03125000 </v>
   <v>       0.40625000       0.21875000       0.03125000 </v>
   <v>       0.46875000       0.21875000       0.03125000 </v>
   <v>       0.28125000       0.28125000       0.03125000 </v>
   <v>       0.34375000       0.28125000       0.03125000 </v>
   <v>       0.40625000       0.28125000       0.03125000 </v>
   <v>       0.46875000       0.28125000       0.03125000 </v>
   <v>       0.34375000       0.34375000       0.03125000 </v>
   <v>       0.40625000       0.34375000       0.03125000 </v>
   <v>       0.46875000       0.34375000       0.03125000 </v>
   <v>       0.40625000       0.40625000       0.03125000 </v>
   <v>       0.46875000       0.40625000       0.03125000 </v>
   <v>       0.46875000       0.46875000       0.03125000 </v>
   <v>       0.09375000       0.09375000       0.09375000 </v>
   <v>       0.15625000       0.09375000       0.09375000 </v>
   <v>       0.21875000       0.09375000       0.09375000 </v>
   <v>       0.28125000       0.09375000       0.09375000 </v>
   <v>       0.34375000       0.09375000       0.09375000 </v>
   <v>       0.40625000       0.09375000       0.09375000 </v>
   <v>       0.46875000       0.09375000       0.09375000 </v>
   <v>       0.15625000       0.15625000       0.09375000 </v>
   <v>       0.21875000       0.15625000       0.09375000 </v>
   <v>       0.28125000       0.15625000       0.09375000 </v>
   <v>       0.34375000       0.15625000       0.09375000 </v>
   <v>       0.40625000       0.15625000       0.09375000 </v>
   <v>       0.46875000       0.15625000       0.09375000 </v>
   <v>       0.21875000       0.21875000       0.09375000 </v>
   <v>       0.28125000       0.21875000       0.09375000 </v>
   <v>       0.34375000       0.21875000       0.09375000 </v>
   <v>       0.40625000       0.21875000       0.09375000 </v>
   <v>       0.46875000       0.21875000       0.09375000 </v>
   <v>       0.28125000       0.28125000       0.09375000 </v>
   <v>       0.34375000       0.28125000       0.09375000 </v>
   <v>       0.40625000       0.28125000       0.09375000 </v>
   <v>       0.46875000       0.28125000       0.09375000 </v>
   <v>       0.34375000       0.34375000       0.09375000 </v>
   <v>       0.40625000       0.34375000       0.09375000 </v>
   <v>       0.46875000       0.34375000       0.09375000 </v>
   <v>       0.40625000       0.40625000       0.09375000 </v>
   <v>       0.46875000       0.40625000       0.09375000 </v>
   <v>       0.46875000       0.46875000       0.09375000 </v>
   <v>       0.15625000       0.15625000       0.15625000 </v>
   <v>       0.21875000       0.15625000       0.15625000 </v>
   <v>       0.28125000       0.15625000       0.15625000 </v>
   <v>       0.34375000       0.15625000       0.15625000 </v>
   <v>       0.40625000       0.15625000       0.15625000 </v>
   <v>       0.46875000       0.15625000       0.15625000 </v>
   <v>       0.21875000       0.21875000       0.15625000 </v>
   <v>       0.28125000       0.21875000       0.15625000 </v>
   <v>       0.34375000       0.21875000       0.15625000 </v>
   <v>       0.40625000       0.21875000       0.15625000 </v>
   <v>       0.46875000       0.21875000       0.15625000 </v>
   <v>       0.28125000       0.28125000       0.15625000 </v>
   <v>       0.34375000       0.28125000       0.15625000 </v>
   <v>       0.40625000       0.28125000       0.15625000 </v>
   <v>       0.46875000       0.28125000       0.15625000 </v>
   <v>       0.34375000       0.34375000       0.15625000 </v>
   <v>       0.40625000       0.34375000       0.15625000 </v>
   <v>       0.46875000       0.34375000       0.15625000 </v>
   <v>       0.40625000       0.40625000       0.15625000 </v>
   <v>       0.46875000       0.40625000       0.15625000 </v>
   <v>       0.46875000       0.46875000       0.15625000 </v>
   <v>       0.21875000       0.21875000       0.21875000 </v>
   <v>       0.28125000       0.21875000       0.21875000 </v>
   <v>       0.34375000       0.21875000       0.21875000 </v>
   <v>       0.40625000       0.21875000       0.21875000 </v>
   <v>       0.46875000       0.21875000       0.21875000 </v>
   <v>       0.28125000       0.28125000       0.21875000 </v>
   <v>       0.34375000       0.28125000       0.21875000 </v>
   <v>       0.40625000       0.28125000       0.21875000 </v>
   <v>       0.46875000       0.28125000       0.21875000 </v>
   <v>       0.34375000       0.34375000       0.21875000 </v>
   <v>       0.40625000       0.34375000       0.21875000 </v>
   <v>       0.46875000       0.34375000       0.21875000 </v>
   <v>       0.40625000       0.40625000       0.21875000 </v>
   <v>       0.46875000       0.40625000       0.21875000 </v>
   <v>       0.46875000       0.46875000       0.21875000 </v>
   <v>       0.28125000       0.28125000       0.28125000 </v>
   <v>       0.34375000       0.28125000       0.28125000 </v>
   <v>       0.40625000       0.28125000       0.28125000 </v>
   <v>       0.46875000       0.28125000       0.28125000 </v>
   <v>       0.34375000       0.34375000       0.28125000 </v>
   <v>       0.40625000       0.34375000       0.28125000 </v>
   <v>       0.46875000       0.34375000       0.28125000 </v>
   <v>       0.40625000       0.40625000       0.28125000 </v>
   <v>       0.46875000       0.40625000       0.28125000 </v>
   <v>       0.46875000       0.46875000       0.28125000 </v>
   <v>       0.34375000       0.34375000       0.34375000 </v>
   <v>       0.40625000       0.34375000       0.34375000 </v>
   <v>       0.46875000       0.34375000       0.34375000 </v>
   <v>       0.40625000       0.40625000       0.34375000 </v>
   <v>       0.46875000       0.40625000       0.34375000 </v>
   <v>       0.46875000       0.46875000       0.34375000 </v>
   <v>       0.40625000       0.40625000       0.40625000 </v>
   <v>       0.46875000       0.40625000       0.40625000 </v>
   <v>       0.46875000       0.46875000       0.40625000 </v>
   <v>       0.46875000       0.46875000       0.46875000 </v>
  </varray>
  <varray name="weights" >
   <v>       0.00195312 </v>
   <v>       0.00585938 </v>
   <v>       0.00585938 </v>
   <v>       0.00585938 </v>
   <v>       0.00585938 </v>
   <v>       0.00585938 </v>
   <v>       0.00585938 </v>
   <v>       0.00585938 </v>
   <v>       0.00585938 </v>
   <v>       0.01171875 </v>
   <v>       0.01171875 </v>
   <v>       0.01171875 </v>
   <v>       0.01171875 </v>
   <v>       0.01171875 </v>
   <v>       0.01171875 </v>
   <v>       0.00585938 </v>
   <v>       0.01171875 </v>
   <v>       0.01171875 </v>
   <v>       0.01171875 </v>
   <v>       0.01171875 </v>
   <v>       0.01171875 </v>
   <v>       0.00585938 </v>
   <v>       0.01171875 </v>
   <v>       0.01171875 </v>
   <v>       0.01171875 </v>
   <v>       0.01171875 </v>
   <v>       0.00585938 </v>
   <v>       0.01171875 </v>
   <v>       0.01171875 </v>
   <v>       0.01171875 </v>
   <v>       0.00585938 </v>
   <v>       0.01171875 </v>
   <v>       0.01171875 </v>
   <v>       0.00585938 </v>
   <v>       0.01171875 </v>
   <v>       0.00585938 </v>
   <v>       0.00195312 </v>
   <v>       0.00585938 </v>
   <v>       0.00585938 </v>
   <v>       0.00585938 </v>
   <v>       0.00585938 </v>
   <v>       0.00585938 </v>
   <v>       0.00585938 </v>
   <v>       0.00585938 </v>
   <v>       0.01171875 </v>
   <v>       0.01171875 </v>
   <v>       0.01171875 </v>
   <v>       0.01171875 </v>
   <v>       0.01171875 </v>
   <v>       0.00585938 </v>
   <v>       0.01171875 </v>
   <v>       0.01171875 </v>
   <v>       0.01171875 </v>
   <v>       0.01171875 </v>
   <v>       0.00585938 </v>
   <v>       0.01171875 </v>
   <v>       0.01171875 </v>
   <v>       0.01171875 </v>
   <v>       0.00585938 </v>
   <v>       0.01171875 </v>
   <v>       0.01171875 </v>
   <v>       0.00585938 </v>
   <v>       0.01171875 </v>
   <v>       0.00585938 </v>
   <v>       0.00195312 </v>
   <v>       0.00585938 </v>
   <v>       0.00585938 </v>
   <v>       0.00585938 </v>
   <v>       0.00585938 </v>
   <v>       0.00585938 </v>
   <v>       0.00585938 </v>
   <v>       0.01171875 </v>
   <v>       0.01171875 </v>
   <v>       0.01171875 </v>
   <v>       0.01171875 </v>
   <v>       0.00585938 </v>
   <v>       0.01171875 </v>
   <v>       0.01171875 </v>
   <v>       0.01171875 </v>
   <v>       0.00585938 </v>
   <v>       0.01171875 </v>
   <v>       0.01171875 </v>
   <v>       0.00585938 </v>
   <v>       0.01171875 </v>
   <v>       0.00585938 </v>
   <v>       0.00195312 </v>
   <v>       0.00585938 </v>
   <v>       0.00585938 </v>
   <v>       0.00585938 </v>
   <v>       0.00585938 </v>
   <v>       0.00585938 </v>
   <v>       0.01171875 </v>
   <v>       0.01171875 </v>
   <v>       0.01171875 </v>
   <v>       0.00585938 </v>
   <v>       0.01171875 </v>
   <v>       0.01171875 </v>
   <v>       0.00585938 </v>
   <v>       0.01171875 </v>
   <v>       0.00585938 </v>
   <v>       0.00195312 </v>
   <v>       0.00585938 </v>
   <v>       0.00585938 </v>
   <v>       0.00585938 </v>
   <v>       0.00585938 </v>
   <v>       0.01171875 </v>
   <v>       0.01171875 </v>
   <v>       0.00585938 </v>
   <v>       0.01171875 </v>
   <v>       0.00585938 </v>
   <v>       0.00195312 </v>
   <v>       0.00585938 </v>
   <v>       0.00585938 </v>
   <v>       0.00585938 </v>
   <v>       0.01171875 </v>
   <v>       0.00585938 </v>
   <v>       0.00195312 </v>
   <v>       0.00585938 </v>
   <v>       0.00585938 </v>
   <v>       0.00195312 </v>
  </varray>
 </kpoints>
 <parameters>
  <separator name="general" >
   <i type="string" name="SYSTEM">unknown system</i>
   <i type="logical" name="LCOMPAT"> F  </i>
  </separator>
  <separator name="electronic" >
   <i type="string" name="PREC">accura</i>
   <i name="ENMAX">    400.00000000</i>
   <i name="ENAUG">    322.06900000</i>
   <i name="EDIFF">      0.00010000</i>
   <i type="int" name="IALGO">    38</i>
   <i type="int" name="IWAVPR">    10</i>
   <i type="int" name="NBANDS">     8</i>
   <i name="NELECT">      8.00000000</i>
   <i type="int" name="TURBO">     0</i>
   <i type="int" name="IRESTART">     0</i>
   <i type="int" name="NREBOOT">     0</i>
   <i type="int" name="NMIN">     0</i>
   <i name="EREF">      0.00000000</i>
   <separator name="electronic smearing" >
    <i type="int" name="ISMEAR">     2</i>
    <i name="SIGMA">      0.10000000</i>
    <i name="KSPACING">      0.50000000</i>
    <i type="logical" name="KGAMMA"> T  </i>
   </separator>
   <separator name="electronic projectors" >
    <i type="logical" name="LREAL"> F  </i>
    <v name="ROPT">      0.00000000</v>
    <i type="int" name="LMAXPAW">  -100</i>
    <i type="int" name="LMAXMIX">     2</i>
    <i type="logical" name="NLSPLINE"> F  </i>
   </separator>
   <separator name="electronic startup" >
    <i type="int" name="ISTART">     0</i>
    <i type="int" name="ICHARG">     2</i>
    <i type="int" name="INIWAV">     1</i>
   </separator>
   <separator name="electronic spin" >
    <i type="int" name="ISPIN">     1</i>
    <i type="logical" name="LNONCOLLINEAR"> F  </i>
    <v name="MAGMOM">      1.00000000      1.00000000</v>
    <i name="NUPDOWN">     -1.00000000</i>
    <i type="logical" name="LSORBIT"> F  </i>
    <v name="SAXIS">      0.00000000      0.00000000      1.00000000</v>
    <i type="logical" name="LSPIRAL"> F  </i>
    <v name="QSPIRAL">      0.00000000      0.00000000      0.00000000</v>
    <i type="logical" name="LZEROZ"> F  </i>
   </separator>
   <separator name="electronic exchange-correlation" >
    <i type="logical" name="LASPH"> F  </i>
    <i type="logical" name="LMETAGGA"> F  </i>
   </separator>
   <separator name="electronic convergence" >
    <i type="int" name="NELM">    60</i>
    <i type="int" name="NELMDL">    -5</i>
    <i type="int" name="NELMIN">     2</i>
    <i name="ENINI">    400.00000000</i>
    <separator name="electronic convergence detail" >
     <i type="logical" name="LDIAG"> T  </i>
     <i type="logical" name="LSUBROT"> F  </i>
     <i name="WEIMIN">      0.00000000</i>
     <i name="EBREAK">      0.00000313</i>
     <i name="DEPER">      0.30000000</i>
     <i type="int" name="NRMM">     4</i>
     <i name="TIME">      0.40000000</i>
    </separator>
   </separator>
   <separator name="electronic mixer" >
    <i name="AMIX">      0.40000000</i>
    <i name="BMIX">      1.00000000</i>
    <i name="AMIN">      0.10000000</i>
    <i name="AMIX_MAG">      1.60000000</i>
    <i name="BMIX_MAG">      1.00000000</i>
    <separator name="electronic mixer details" >
     <i type="int" name="IMIX">     4</i>
     <i type="logical" name="MIXFIRST"> F  </i>
     <i type="int" name="MAXMIX">   -45</i>
     <i name="WC">    100.00000000</i>
     <i type="int" name="INIMIX">     1</i>
     <i type="int" name="MIXPRE">     1</i>
     <i type="int" name="MREMOVE">     5</i>
    </separator>
   </separator>
   <separator name="electronic dipolcorrection" >
    <i type="logical" name="LDIPOL"> F  </i>
    <i type="logical" name="LMONO"> F  </i>
    <i type="int" name="IDIPOL">     0</i>
    <i name="EPSILON">      1.00000000</i>
    <v name="DIPOL">   -100.00000000   -100.00000000   -100.00000000</v>
    <i name="EFIELD">      0.00000000</i>
   </separator>
  </separator>
  <separator name="grids" >
   <i type="int" name="NGX">    20</i>
   <i type="int" name="NGY">    20</i>
   <i type="int" name="NGZ">    20</i>
   <i type="int" name="NGXF">    40</i>
   <i type="int" name="NGYF">    40</i>
   <i type="int" name="NGZF">    40</i>
   <i type="logical" name="ADDGRID"> F  </i>
  </separator>
  <separator name="ionic" >
   <i type="int" name="NSW">     0</i>
   <i type="int" name="IBRION">    -1</i>
   <i type="int" name="ISIF">     2</i>
   <i name="PSTRESS">      0.00000000</i>
   <i name="EDIFFG">      0.00100000</i>
   <i type="int" name="NFREE">     0</i>
   <i name="POTIM">      0.50000000</i>
   <i name="SMASS">     -3.00000000</i>
   <i name="SCALEE">      1.00000000</i>
  </separator>
  <separator name="ionic md" >
   <i name="TEBEG">      0.00010000</i>
   <i name="TEEND">      0.00010000</i>
   <i type="int" name="NBLOCK">     1</i>
   <i type="int" name="KBLOCK">     1</i>
   <i type="int" name="NPACO">   256</i>
   <i name="APACO">     16.00000000</i>
  </separator>
  <separator name="symmetry" >
   <i type="int" name="ISYM">     2</i>
   <i name="SYMPREC">      0.00001000</i>
  </separator>
  <separator name="dos" >
   <i type="logical" name="LORBIT"> F  </i>
   <v name="RWIGS">     -1.00000000</v>
   <i type="int" name="NEDOS">   301</i>
   <i name="EMIN">     10.00000000</i>
   <i name="EMAX">    -10.00000000</i>
   <i name="EFERMI">      0.00000000</i>
  </separator>
  <separator name="writing" >
   <i type="int" name="NWRITE">     1</i>
   <i type="logical" name="LWAVE"> T  </i>
   <i type="logical" name="LCHARG"> T  </i>
   <i type="logical" name="LPARD"> F  </i>
   <i type="logical" name="LVTOT"> F  </i>
   <i type="logical" name="LVHAR"> F  </i>
   <i type="logical" name="LELF"> F  </i>
   <i type="logical" name="LOPTICS"> F  </i>
   <v name="STM">      0.00000000      0.00000000      0.00000000      0.00000000      0.00000000      0.00000000      0.00000000</v>
  </separator>
  <separator name="performance" >
   <i type="int" name="NPAR">     8</i>
   <i type="int" name="NSIM">     4</i>
   <i type="int" name="NBLK">    -1</i>
   <i type="logical" name="LPLANE"> T  </i>
   <i type="logical" name="LSCALAPACK"> T  </i>
   <i type="logical" name="LSCAAWARE"> F  </i>
   <i type="logical" name="LSCALU"> F  </i>
   <i type="logical" name="LASYNC"> F  </i>
   <i type="logical" name="LORBITALREAL"> F  </i>
  </separator>
  <separator name="miscellaneous" >
   <i type="int" name="IDIOT">     3</i>
   <i type="logical" name="LMUSIC"> F  </i>
   <v name="POMASS">     28.08500000</v>
   <v name="DARWINR">      0.00000000</v>
   <v name="DARWINV">      1.00000000</v>
   <i type="logical" name="LCORR"> T  </i>
  </separator>
  <i type="logical" name="GGA_COMPAT"> T  </i>
  <i type="logical" name="LBERRY"> F  </i>
  <i type="int" name="ICORELEVEL">     0</i>
  <i type="logical" name="LDAU"> F  </i>
  <i type="int" name="I_CONSTRAINED_M">     0</i>
  <separator name="electronic exchange-correlation" >
   <i type="string" name="GGA">--</i>
   <i type="int" name="VOSKOWN">     0</i>
   <i type="logical" name="LHFCALC"> F  </i>
   <i type="string" name="PRECFOCK"></i>
   <i type="logical" name="LSYMGRAD"> F  </i>
   <i type="logical" name="LHFONE"> F  </i>
   <i type="logical" name="LRHFCALC"> F  </i>
   <i type="logical" name="LTHOMAS"> F  </i>
   <i type="logical" name="LMODELHF"> F  </i>
   <i name="ENCUT4O">     -1.00000000</i>
   <i type="int" name="EXXOEP">     0</i>
   <i type="int" name="FOURORBIT">     0</i>
   <i name="AEXX">      0.00000000</i>
   <i name="HFALPHA">      0.00000000</i>
   <i name="MCALPHA">      0.00000000</i>
   <i name="ALDAX">      1.00000000</i>
   <i name="AGGAX">      1.00000000</i>
   <i name="ALDAC">      1.00000000</i>
   <i name="AGGAC">      1.00000000</i>
   <i type="int" name="NKREDX">     1</i>
   <i type="int" name="NKREDY">     1</i>
   <i type="int" name="NKREDZ">     1</i>
   <i type="logical" name="SHIFTRED"> F  </i>
   <i type="logical" name="ODDONLY"> F  </i>
   <i type="logical" name="EVENONLY"> F  </i>
   <i type="int" name="LMAXFOCK">     0</i>
   <i type="int" name="NMAXFOCKAE">     0</i>
   <i type="logical" name="LFOCKAEDFT"> F  </i>
   <i name="HFSCREEN">      0.00000000</i>
   <i name="HFSCREENC">      0.00000000</i>
   <i type="int" name="NBANDSGWLOW">     0</i>
  </separator>
  <separator name="vdW DFT" >
   <i type="logical" name="LUSE_VDW"> F  </i>
   <i name="Zab_VDW">     -0.84910000</i>
   <i name="PARAM1">      0.12340000</i>
   <i name="PARAM2">      1.00000000</i>
   <i name="PARAM3">      0.00000000</i>
  </separator>
  <separator name="model GW" >
   <i type="int" name="MODEL_GW">     0</i>
   <i name="MODEL_EPS0">      8.23876617</i>
   <i name="MODEL_ALPHA">      1.00000000</i>
  </separator>
  <separator name="linear response parameters" >
   <i type="logical" name="LEPSILON"> F  </i>
   <i type="logical" name="LRPA"> F  </i>
   <i type="logical" name="LNABLA"> F  </i>
   <i type="logical" name="LVEL"> F  </i>
   <i type="int" name="KINTER">     0</i>
   <i name="CSHIFT">      0.10000000</i>
   <i name="OMEGAMAX">     -1.00000000</i>
   <i name="DEG_THRESHOLD">      0.00200000</i>
  </separator>
  <separator name="orbital magnetization" >
   <i type="logical" name="NUCIND"> F  </i>
   <v name="MAGPOS">      0.00000000      0.00000000      0.00000000</v>
   <i type="logical" name="LNICSALL"> T  </i>
   <i type="logical" name="ORBITALMAG"> F  </i>
   <i type="logical" name="LMAGBLOCH"> F  </i>
   <i type="logical" name="LCHIMAG"> F  </i>
   <i type="logical" name="LGAUGE"> T  </i>
   <i type="int" name="MAGATOM">     0</i>
   <v name="MAGDIPOL">      0.00000000      0.00000000      0.00000000</v>
   <v name="AVECCONST">      0.00000000      0.00000000      0.00000000</v>
  </separator>
  <separator name="response functions" >
   <i type="logical" name="LADDER"> F  </i>
   <i type="logical" name="LFXC"> F  </i>
   <i type="logical" name="LHARTREE"> T  </i>
   <i type="int" name="IBSE">     0</i>
   <v type="int" name="KPOINT">    -1     0     0     0</v>
   <i type="logical" name="LTCTE"> F  </i>
   <i type="logical" name="LTETE"> F  </i>
   <i type="logical" name="LTRIPLET"> F  </i>
   <i type="logical" name="LFXCEPS"> F  </i>
   <i type="logical" name="LFXHEG"> F  </i>
   <i type="int" name="NATURALO">     0</i>
   <i type="logical" name="L2ORDER"> F  </i>
   <i type="logical" name="LUSEW"> F  </i>
   <i name="ENCUTGW">     -2.00000000</i>
   <i name="ENCUTGWSOFT">     -2.00000000</i>
   <i name="ENCUTLF">     -1.00000000</i>
   <i type="int" name="LMAXMP2">    -1</i>
   <i name="SCISSOR">      0.00000000</i>
   <i type="int" name="NOMEGA">     0</i>
   <i type="int" name="NOMEGAR">     0</i>
   <i type="int" name="NBANDSGW">    -1</i>
   <i type="int" name="NBANDSO">    -1</i>
   <i type="int" name="NBANDSV">    -1</i>
   <i type="int" name="NELM">     1</i>
   <i type="int" name="NELMHF">     1</i>
   <i type="int" name="DIM">     3</i>
   <i type="int" name="ANTIRES">     0</i>
   <i name="OMEGAMAX">    -30.00000000</i>
   <i name="OMEGAMIN">    -30.00000000</i>
   <i name="OMEGATL">   -200.00000000</i>
   <i type="int" name="OMEGAGRID">     0</i>
   <i name="CSHIFT">     -0.10000000</i>
   <i type="logical" name="SELFENERGY"> F  </i>
   <i type="logical" name="LSPECTRAL"> F  </i>
   <i type="logical" name="LSPECTRALGW"> F  </i>
   <i type="logical" name="LSINGLES"> F  </i>
   <i type="logical" name="LFERMIGW"> F  </i>
   <i type="logical" name="ODDONLYGW"> F  </i>
   <i type="logical" name="EVENONLYGW"> F  </i>
   <i type="int" name="NKREDLFX">     1</i>
   <i type="int" name="NKREDLFY">     1</i>
   <i type="int" name="NKREDLFZ">     1</i>
   <i type="int" name="MAXMEM">  1800</i>
   <i type="int" name="TELESCOPE">     0</i>
   <i type="int" name="TAUPAR">     1</i>
   <i type="int" name="OMEGAPAR">    -1</i>
   <i name="LAMBDA">      1.00000000</i>
  </separator>
  <separator name="External order field" >
   <i name="OFIELD_KAPPA">      0.00000000</i>
   <v name="OFIELD_K">      0.00000000      0.00000000      0.00000000</v>
   <i name="OFIELD_Q6_NEAR">      0.00000000</i>
   <i name="OFIELD_Q6_FAR">      0.00000000</i>
   <i name="OFIELD_A">      0.00000000</i>
  </separator>
 </parameters>
 <atominfo>
  <atoms>       2 </atoms>
  <types>       1 </types>
  <array name="atoms" >
   <dimension dim="1">ion</dimension>
   <field type="string">element</field>
   <field type="int">atomtype</field>
   <set>
    <rc><c>Si</c><c>   1</c></rc>
    <rc><c>Si</c><c>   1</c></rc>
   </set>
  </array>
  <array name="atomtypes" >
   <dimension dim="1">type</dimension>
   <field type="int">atomspertype</field>
   <field type="string">element</field>
   <field>mass</field>
   <field>valence</field>
   <field type="string">pseudopotential</field>
   <set>
    <rc><c>   2</c><c>Si</c><c>     28.08500000</c><c>      4.00000000</c><c>  PAW_PBE Si 05Jan2001                  </c></rc>
   </set>
  </array>
 </atominfo>
 <structure name="initialpos" >
  <crystal>
   <varray name="basis" >
    <v>       3.01703472       0.00000000       0.00000000 </v>
    <v>       0.00000000       3.01703472       0.00000000 </v>
    <v>       0.00000000       0.00000000       3.01703472 </v>
   </varray>
   <i name="volume">     27.46255390 </i>
   <varray name="rec_basis" >
    <v>       0.33145127       0.00000000       0.00000000 </v>
    <v>       0.00000000       0.33145127       0.00000000 </v>
    <v>       0.00000000       0.00000000       0.33145127 </v>
   </varray>
  </crystal>
  <varray name="positions" >
   <v>       0.00000000       0.00000000       0.00000000 </v>
   <v>       0.50000000       0.50000000       0.50000000 </v>
  </varray>
 </structure>
 <calculation>
  <scstep>
   <time name="dav">    0.39    0.42</time>
   <time name="total">    0.42    0.48</time>
   <energy>
    <i name="alphaZ">      4.90313187 </i>
    <i name="ewald">   -277.91095484 </i>
    <i name="hartreedc">     -0.92843816 </i>
    <i name="XCdc">    -17.33464232 </i>
    <i name="pawpsdc">    176.24759923 </i>
    <i name="pawaedc">   -141.06103558 </i>
    <i name="eentropy">     -0.00039916 </i>
    <i name="bandstr">     51.97587511 </i>
    <i name="atom">    206.13149246 </i>
    <i name="e_fr_energy">      2.02262862 </i>
    <i name="e_wo_entrp">      2.02302777 </i>
    <i name="e_0_energy">      2.02272840 </i>
   </energy>
  </scstep>
  <scstep>
   <time name="dav">    0.54    0.56</time>
   <time name="total">    0.57    0.58</time>
   <energy>
    <i name="e_fr_energy">     -9.66662070 </i>
    <i name="e_wo_entrp">     -9.66691749 </i>
    <i name="e_0_energy">     -9.66669490 </i>
   </energy>
  </scstep>
  <scstep>
   <time name="dav">    0.49    0.49</time>
   <time name="total">    0.49    0.50</time>
   <energy>
    <i name="e_fr_energy">     -9.80195340 </i>
    <i name="e_wo_entrp">     -9.80237292 </i>
    <i name="e_0_energy">     -9.80205828 </i>
   </energy>
  </scstep>
  <scstep>
   <time name="dav">    0.54    0.54</time>
   <time name="total">    0.55    0.56</time>
   <energy>
    <i name="e_fr_energy">     -9.80223053 </i>
    <i name="e_wo_entrp">     -9.80264667 </i>
    <i name="e_0_energy">     -9.80233457 </i>
   </energy>
  </scstep>
  <scstep>
   <time name="dav">    0.47    0.49</time>
   <time name="total">    0.51    0.54</time>
   <energy>
    <i name="e_fr_energy">     -9.80223124 </i>
    <i name="e_wo_entrp">     -9.80264736 </i>
    <i name="e_0_energy">     -9.80233527 </i>
   </energy>
  </scstep>
  <scstep>
   <time name="dav">    0.46    0.46</time>
   <time name="total">    0.49    0.51</time>
   <energy>
    <i name="e_fr_energy">     -9.77887964 </i>
    <i name="e_wo_entrp">     -9.77927981 </i>
    <i name="e_0_energy">     -9.77897968 </i>
   </energy>
  </scstep>
  <scstep>
   <time name="dav">    0.45    0.44</time>
   <time name="total">    0.47    0.49</time>
   <energy>
    <i name="e_fr_energy">     -9.76545339 </i>
    <i name="e_wo_entrp">     -9.76580466 </i>
    <i name="e_0_energy">     -9.76554121 </i>
   </energy>
  </scstep>
  <scstep>
   <time name="dav">    0.49    0.49</time>
   <time name="total">    0.50    0.51</time>
   <energy>
    <i name="alphaZ">      4.90313187 </i>
    <i name="ewald">   -277.91095484 </i>
    <i name="hartreedc">     -0.68659656 </i>
    <i name="XCdc">    -17.19144540 </i>
    <i name="pawpsdc">    680.96962744 </i>
    <i name="pawaedc">   -645.84050650 </i>
    <i name="eentropy">      0.00034871 </i>
    <i name="bandstr">     39.85951944 </i>
    <i name="atom">    206.13149246 </i>
    <i name="e_fr_energy">     -9.76538338 </i>
    <i name="e_wo_entrp">     -9.76573209 </i>
    <i name="e_0_energy">     -9.76547056 </i>
   </energy>
  </scstep>
  <structure>
   <crystal>
    <varray name="basis" >
     <v>       3.01703472       0.00000000       0.00000000 </v>
     <v>       0.00000000       3.01703472       0.00000000 </v>
     <v>       0.00000000       0.00000000       3.01703472 </v>
    </varray>
    <i name="volume">     27.46255390 </i>
    <varray name="rec_basis" >
     <v>       0.33145127       0.00000000       0.00000000 </v>
     <v>       0.00000000       0.33145127       0.00000000 </v>
     <v>       0.00000000       0.00000000       0.33145127 </v>
    </varray>
   </crystal>
   <varray name="positions" >
    <v>       0.00000000       0.00000000       0.00000000 </v>
    <v>       0.50000000       0.50000000       0.50000000 </v>
   </varray>
  </structure>
  <varray name="forces" >
   <v>       0.00000000       0.00000000       0.00000000 </v>
   <v>       0.00000000       0.00000000       0.00000000 </v>
  </varray>
  <varray name="stress" >
   <v>      66.44820310       0.00000000       0.00000000 </v>
   <v>       0.00000000      66.44820310       0.00000000 </v>
   <v>       0.00000000       0.00000000      66.44820310 </v>
  </varray>
  <energy>
   <i name="e_fr_energy">     -9.76538338 </i>
   <i name="e_wo_entrp">     -9.76547056 </i>
   <i name="e_0_energy">      0.00034871 </i>
  </energy>
  <time name="totalsc">    4.46    4.69</time>
  <eigenvalues>
   <array>
    <dimension dim="1">band</dimension>
    <dimension dim="2">kpoint</dimension>
    <dimension dim="3">spin</dimension>
    <field>eigene</field>
    <field>occ</field>
    <set>
     <set comment="spin 1">
      <set comment="kpoint 1">
       <r>   -4.0124    1.0000 </r>
       <r>    9.9571    1.0000 </r>
       <r>    9.9750    1.0000 </r>
       <r>    9.9750    1.0000 </r>
       <r>   12.9233    0.0000 </r>
       <r>   13.2471    0.0000 </r>
       <r>   13.2471    0.0000 </r>
       <r>   22.0363    0.0000 </r>
      </set>
      <set comment="kpoint 2">
       <r>   -3.8875    1.0000 </r>
       <r>    8.5633    1.0000 </r>
       <r>   10.0761    1.0000 </r>
       <r>   10.0881    1.0000 </r>
       <r>   13.1296    0.0000 </r>
       <r>   13.3719    0.0000 </r>
       <r>   14.7606    0.0000 </r>
       <r>   21.0195    0.0000 </r>
      </set>
      <set comment="kpoint 3">
       <r>   -3.6380    1.0000 </r>
       <r>    6.9988    1.0000 </r>
       <r>   10.3016    1.0000 </r>
       <r>   10.3141    1.0000 </r>
       <r>   13.3653    0.0000 </r>
       <r>   13.6217    0.0000 </r>
       <r>   16.7141    0.0000 </r>
       <r>   19.7579    0.0000 </r>
      </set>
      <set comment="kpoint 4">
       <r>   -3.2644    1.0000 </r>
       <r>    5.4850    1.0000 </r>
       <r>   10.6393    1.0078 </r>
       <r>   10.6529    0.9498 </r>
       <r>   13.7092    0.0000 </r>
       <r>   13.9962    0.0000 </r>
       <r>   18.4727    0.0000 </r>
       <r>   18.5774    0.0000 </r>
      </set>
      <set comment="kpoint 5">
       <r>   -2.7672    1.0000 </r>
       <r>    4.0616    1.0000 </r>
       <r>   11.0889    0.0000 </r>
       <r>   11.1041    0.0000 </r>
       <r>   14.1616    0.0000 </r>
       <r>   14.4954    0.0000 </r>
       <r>   17.2286    0.0000 </r>
       <r>   17.3051    0.0000 </r>
      </set>
      <set comment="kpoint 6">
       <r>   -2.1474    1.0000 </r>
       <r>    2.7416    1.0000 </r>
       <r>   11.6496    0.0000 </r>
       <r>   11.6673    0.0000 </r>
       <r>   14.7191    0.0000 </r>
       <r>   15.1189    0.0000 </r>
       <r>   16.0566    0.0000 </r>
       <r>   16.1142    0.0000 </r>
      </set>
      <set comment="kpoint 7">
       <r>   -1.4060    1.0000 </r>
       <r>    1.5316    1.0000 </r>
       <r>   12.3203    0.0000 </r>
       <r>   12.3418    0.0000 </r>
       <r>   14.9720    0.0000 </r>
       <r>   15.0160    0.0000 </r>
       <r>   15.3766    0.0000 </r>
       <r>   15.8664    0.0000 </r>
      </set>
      <set comment="kpoint 8">
       <r>   -0.5446    1.0000 </r>
       <r>    0.4353    1.0000 </r>
       <r>   13.0993    0.0000 </r>
       <r>   13.1261    0.0000 </r>
       <r>   13.9843    0.0000 </r>
       <r>   14.0184    0.0000 </r>
       <r>   16.1270    0.0000 </r>
       <r>   16.7370    0.0000 </r>
      </set>
      <set comment="kpoint 9">
       <r>   -3.7628    1.0000 </r>
       <r>    8.6620    1.0000 </r>
       <r>    8.6968    1.0000 </r>
       <r>   10.1951    1.0000 </r>
       <r>   13.3574    0.0000 </r>
       <r>   14.7487    0.0000 </r>
       <r>   14.9932    0.0000 </r>
       <r>   19.9693    0.0000 </r>
      </set>
      <set comment="kpoint 10">
       <r>   -3.5134    1.0000 </r>
       <r>    7.1164    1.0000 </r>
       <r>    8.9116    1.0000 </r>
       <r>   10.4208    0.9994 </r>
       <r>   13.5993    0.0000 </r>
       <r>   15.0918    0.0000 </r>
       <r>   16.8365    0.0000 </r>
       <r>   18.6508    0.0000 </r>
      </set>
      <set comment="kpoint 11">
       <r>   -3.1400    1.0000 </r>
       <r>    5.6039    1.0000 </r>
       <r>    9.2588    1.0000 </r>
       <r>   10.7590    0.0392 </r>
       <r>   13.9548    0.0000 </r>
       <r>   15.4462    0.0000 </r>
       <r>   17.3148    0.0000 </r>
       <r>   18.6095    0.0000 </r>
      </set>
      <set comment="kpoint 12">
       <r>   -2.6431    1.0000 </r>
       <r>    4.1815    1.0000 </r>
       <r>    9.7209    1.0000 </r>
       <r>   11.2094    0.0000 </r>
       <r>   14.4242    0.0000 </r>
       <r>   15.9134    0.0000 </r>
       <r>   16.0300    0.0000 </r>
       <r>   17.3688    0.0000 </r>
      </set>
      <set comment="kpoint 13">
       <r>   -2.0236    1.0000 </r>
       <r>    2.8624    1.0000 </r>
       <r>   10.2970    1.0000 </r>
       <r>   11.7712    0.0000 </r>
       <r>   14.8231    0.0000 </r>
       <r>   15.0044    0.0000 </r>
       <r>   16.1930    0.0000 </r>
       <r>   16.4942    0.0000 </r>
      </set>
      <set comment="kpoint 14">
       <r>   -1.2828    1.0000 </r>
       <r>    1.6531    1.0000 </r>
       <r>   10.9859    0.0007 </r>
       <r>   12.4435    0.0000 </r>
       <r>   13.7086    0.0000 </r>
       <r>   15.1043    0.0000 </r>
       <r>   15.6902    0.0000 </r>
       <r>   17.1881    0.0000 </r>
      </set>
      <set comment="kpoint 15">
       <r>   -0.4218    1.0000 </r>
       <r>    0.5575    1.0000 </r>
       <r>   11.7858    0.0000 </r>
       <r>   12.6946    0.0000 </r>
       <r>   13.2249    0.0000 </r>
       <r>   14.1130    0.0000 </r>
       <r>   16.4742    0.0000 </r>
       <r>   17.3451    0.0000 </r>
      </set>
      <set comment="kpoint 16">
       <r>   -3.2644    1.0000 </r>
       <r>    7.3256    1.0000 </r>
       <r>    7.3785    1.0000 </r>
       <r>   10.6464    0.9809 </r>
       <r>   13.8417    0.0000 </r>
       <r>   16.8561    0.0000 </r>
       <r>   17.2448    0.0000 </r>
       <r>   17.2758    0.0000 </r>
      </set>
      <set comment="kpoint 17">
       <r>   -2.8914    1.0000 </r>
       <r>    5.8414    1.0000 </r>
       <r>    7.7051    1.0000 </r>
       <r>   10.9845    0.0007 </r>
       <r>   14.1973    0.0000 </r>
       <r>   15.9012    0.0000 </r>
       <r>   17.3566    0.0000 </r>
       <r>   18.7036    0.0000 </r>
      </set>
      <set comment="kpoint 18">
       <r>   -2.3951    1.0000 </r>
       <r>    4.4210    1.0000 </r>
       <r>    8.1739    1.0000 </r>
       <r>   11.4345    0.0000 </r>
       <r>   14.5868    0.0000 </r>
       <r>   14.6671    0.0000 </r>
       <r>   17.5469    0.0000 </r>
       <r>   17.8143    0.0000 </r>
      </set>
      <set comment="kpoint 19">
       <r>   -1.7764    1.0000 </r>
       <r>    3.1037    1.0000 </r>
       <r>    8.7586    1.0000 </r>
       <r>   11.9959    0.0000 </r>
       <r>   13.3567    0.0000 </r>
       <r>   15.2483    0.0000 </r>
       <r>   16.3976    0.0000 </r>
       <r>   18.3720    0.0000 </r>
      </set>
      <set comment="kpoint 20">
       <r>   -1.0365    1.0000 </r>
       <r>    1.8959    1.0000 </r>
       <r>    9.4577    1.0000 </r>
       <r>   12.2229    0.0000 </r>
       <r>   12.6674    0.0000 </r>
       <r>   15.3194    0.0000 </r>
       <r>   15.9363    0.0000 </r>
       <r>   18.5465    0.0000 </r>
      </set>
      <set comment="kpoint 21">
       <r>   -0.1766    1.0000 </r>
       <r>    0.8016    1.0000 </r>
       <r>   10.2698    1.0000 </r>
       <r>   11.1925    0.0000 </r>
       <r>   13.4474    0.0000 </r>
       <r>   14.3330    0.0000 </r>
       <r>   16.7241    0.0000 </r>
       <r>   17.6006    0.0000 </r>
      </set>
      <set comment="kpoint 22">
       <r>   -2.5191    1.0000 </r>
       <r>    6.1600    1.0000 </r>
       <r>    6.2362    1.0000 </r>
       <r>   11.3222    0.0000 </r>
       <r>   14.4979    0.0000 </r>
       <r>   14.5516    0.0000 </r>
       <r>   18.5588    0.0000 </r>
       <r>   19.1406    0.0000 </r>
      </set>
      <set comment="kpoint 23">
       <r>   -2.0237    1.0000 </r>
       <r>    4.7795    1.0000 </r>
       <r>    6.6731    1.0000 </r>
       <r>   11.7718    0.0000 </r>
       <r>   13.1616    0.0000 </r>
       <r>   15.0189    0.0000 </r>
       <r>   17.7552    0.0000 </r>
       <r>   19.7989    0.0000 </r>
      </set>
      <set comment="kpoint 24">
       <r>   -1.4062    1.0000 </r>
       <r>    3.4650    1.0000 </r>
       <r>    7.2635    1.0000 </r>
       <r>   11.9141    0.0000 </r>
       <r>   12.3323    0.0000 </r>
       <r>   15.5967    0.0000 </r>
       <r>   16.6890    0.0000 </r>
       <r>   19.6411    0.0000 </r>
      </set>
      <set comment="kpoint 25">
       <r>   -0.6675    1.0000 </r>
       <r>    2.2595    1.0000 </r>
       <r>    7.9700    1.0000 </r>
       <r>   10.7661    0.0079 </r>
       <r>   13.0024    0.0000 </r>
       <r>   15.6365    0.0000 </r>
       <r>   16.2796    0.0000 </r>
       <r>   18.8278    0.0000 </r>
      </set>
      <set comment="kpoint 26">
       <r>    0.1908    1.0000 </r>
       <r>    1.1672    1.0000 </r>
       <r>    8.7906    1.0000 </r>
       <r>    9.7236    1.0000 </r>
       <r>   13.7798    0.0000 </r>
       <r>   14.6605    0.0000 </r>
       <r>   17.0593    0.0000 </r>
       <r>   17.9207    0.0000 </r>
      </set>
      <set comment="kpoint 27">
       <r>   -1.5296    1.0000 </r>
       <r>    5.2073    1.0000 </r>
       <r>    5.3094    1.0000 </r>
       <r>   11.8085    0.0000 </r>
       <r>   12.2205    0.0000 </r>
       <r>   15.4821    0.0000 </r>
       <r>   17.7255    0.0000 </r>
       <r>   19.1968    0.0000 </r>
      </set>
      <set comment="kpoint 28">
       <r>   -0.9135    1.0000 </r>
       <r>    3.9451    1.0000 </r>
       <r>    5.8558    1.0000 </r>
       <r>   10.5475    1.0060 </r>
       <r>   12.7796    0.0000 </r>
       <r>   16.0533    0.0000 </r>
       <r>   17.0142    0.0000 </r>
       <r>   19.1744    0.0000 </r>
      </set>
      <set comment="kpoint 29">
       <r>   -0.1766    1.0000 </r>
       <r>    2.7431    1.0000 </r>
       <r>    6.5676    1.0000 </r>
       <r>    9.3882    1.0000 </r>
       <r>   13.4472    0.0000 </r>
       <r>   16.0417    0.0000 </r>
       <r>   16.7258    0.0000 </r>
       <r>   19.0434    0.0000 </r>
      </set>
      <set comment="kpoint 30">
       <r>    0.6796    1.0000 </r>
       <r>    1.6536    1.0000 </r>
       <r>    7.3951    1.0000 </r>
       <r>    8.3362    1.0000 </r>
       <r>   14.2198    0.0000 </r>
       <r>   15.0904    0.0000 </r>
       <r>   17.4870    0.0000 </r>
       <r>   18.3055    0.0000 </r>
      </set>
      <set comment="kpoint 31">
       <r>   -0.2993    1.0000 </r>
       <r>    4.4836    1.0000 </r>
       <r>    4.6100    1.0000 </r>
       <r>    9.2755    1.0000 </r>
       <r>   13.3362    0.0000 </r>
       <r>   16.6137    0.0000 </r>
       <r>   17.1012    0.0000 </r>
       <r>   18.5436    0.0000 </r>
      </set>
      <set comment="kpoint 32">
       <r>    0.4353    1.0000 </r>
       <r>    3.3453    1.0000 </r>
       <r>    5.2667    1.0000 </r>
       <r>    8.1069    1.0000 </r>
       <r>   13.9990    0.0000 </r>
       <r>   16.4836    0.0000 </r>
       <r>   17.2669    0.0000 </r>
       <r>   18.6435    0.0000 </r>
      </set>
      <set comment="kpoint 33">
       <r>    1.2890    1.0000 </r>
       <r>    2.2598    1.0000 </r>
       <r>    6.0993    1.0000 </r>
       <r>    7.0470    1.0000 </r>
       <r>   14.7618    0.0000 </r>
       <r>   15.6088    0.0000 </r>
       <r>   17.9846    0.0000 </r>
       <r>   18.6325    0.0000 </r>
      </set>
      <set comment="kpoint 34">
       <r>    1.1672    1.0000 </r>
       <r>    3.9971    1.0000 </r>
       <r>    4.1421    1.0000 </r>
       <r>    6.9305    1.0000 </r>
       <r>   14.6522    0.0000 </r>
       <r>   16.6854    0.0000 </r>
       <r>   17.8768    0.0000 </r>
       <r>   18.0983    0.0000 </r>
      </set>
      <set comment="kpoint 35">
       <r>    2.0176    1.0000 </r>
       <r>    2.9840    1.0000 </r>
       <r>    4.9115    1.0000 </r>
       <r>    5.8641    1.0000 </r>
       <r>   15.3919    0.0000 </r>
       <r>   16.1646    0.0000 </r>
       <r>   18.3195    0.0000 </r>
       <r>   18.4240    0.0000 </r>
      </set>
      <set comment="kpoint 36">
       <r>    2.8633    1.0000 </r>
       <r>    3.7528    1.0000 </r>
       <r>    3.9079    1.0000 </r>
       <r>    4.7928    1.0000 </r>
       <r>   16.0582    0.0000 </r>
       <r>   16.4776    0.0000 </r>
       <r>   17.8734    0.0000 </r>
       <r>   18.2107    0.0000 </r>
      </set>
      <set comment="kpoint 37">
       <r>   -3.6381    1.0000 </r>
       <r>    8.7608    1.0000 </r>
       <r>    8.8129    1.0000 </r>
       <r>    8.8129    1.0000 </r>
       <r>   14.6997    0.0000 </r>
       <r>   15.1146    0.0000 </r>
       <r>   15.1146    0.0000 </r>
       <r>   19.5959    0.0000 </r>
      </set>
      <set comment="kpoint 38">
       <r>   -3.3889    1.0000 </r>
       <r>    7.2340    1.0000 </r>
       <r>    9.0102    1.0000 </r>
       <r>    9.0450    1.0000 </r>
       <r>   15.0301    0.0000 </r>
       <r>   15.3575    0.0000 </r>
       <r>   16.9588    0.0000 </r>
       <r>   18.5158    0.0000 </r>
      </set>
      <set comment="kpoint 39">
       <r>   -3.0157    1.0000 </r>
       <r>    5.7228    1.0000 </r>
       <r>    9.3566    1.0000 </r>
       <r>    9.3929    1.0000 </r>
       <r>   15.3671    0.0000 </r>
       <r>   15.7215    0.0000 </r>
       <r>   17.2677    0.0000 </r>
       <r>   17.5876    0.0000 </r>
      </set>
      <set comment="kpoint 40">
       <r>   -2.5191    1.0000 </r>
       <r>    4.3013    1.0000 </r>
       <r>    9.8170    1.0000 </r>
       <r>    9.8564    1.0000 </r>
       <r>   15.8032    0.0000 </r>
       <r>   16.0311    0.0000 </r>
       <r>   16.2064    0.0000 </r>
       <r>   16.2570    0.0000 </r>
      </set>
      <set comment="kpoint 41">
       <r>   -1.9000    1.0000 </r>
       <r>    2.9831    1.0000 </r>
       <r>   10.3902    0.9999 </r>
       <r>   10.4350    0.9989 </r>
       <r>   14.8558    0.0000 </r>
       <r>   15.0194    0.0000 </r>
       <r>   16.3378    0.0000 </r>
       <r>   16.8115    0.0000 </r>
      </set>
      <set comment="kpoint 42">
       <r>   -1.1596    1.0000 </r>
       <r>    1.7746    1.0000 </r>
       <r>   11.0742    0.0000 </r>
       <r>   11.1283    0.0000 </r>
       <r>   13.7632    0.0000 </r>
       <r>   13.8834    0.0000 </r>
       <r>   16.9653    0.0000 </r>
       <r>   17.5361    0.0000 </r>
      </set>
      <set comment="kpoint 43">
       <r>   -0.2991    1.0000 </r>
       <r>    0.6796    1.0000 </r>
       <r>   11.8667    0.0000 </r>
       <r>   11.9352    0.0000 </r>
       <r>   12.7646    0.0000 </r>
       <r>   12.8542    0.0000 </r>
       <r>   17.6755    0.0000 </r>
       <r>   18.3781    0.0000 </r>
      </set>
      <set comment="kpoint 44">
       <r>   -3.1400    1.0000 </r>
       <r>    7.4433    1.0000 </r>
       <r>    7.4957    1.0000 </r>
       <r>    9.2595    1.0000 </r>
       <r>   15.3982    0.0000 </r>
       <r>   16.9872    0.0000 </r>
       <r>   17.3490    0.0000 </r>
       <r>   17.3643    0.0000 </r>
      </set>
      <set comment="kpoint 45">
       <r>   -2.7672    1.0000 </r>
       <r>    5.9601    1.0000 </r>
       <r>    7.8224    1.0000 </r>
       <r>    9.6063    1.0000 </r>
       <r>   15.7451    0.0000 </r>
       <r>   16.0000    0.0000 </r>
       <r>   17.4833    0.0000 </r>
       <r>   17.6246    0.0000 </r>
      </set>
      <set comment="kpoint 46">
       <r>   -2.2713    1.0000 </r>
       <r>    4.5408    1.0000 </r>
       <r>    8.2910    1.0000 </r>
       <r>   10.0678    1.0000 </r>
       <r>   14.6944    0.0000 </r>
       <r>   16.1957    0.0000 </r>
       <r>   16.3624    0.0000 </r>
       <r>   17.9424    0.0000 </r>
      </set>
      <set comment="kpoint 47">
       <r>   -1.6529    1.0000 </r>
       <r>    3.2243    1.0000 </r>
       <r>    8.8754    1.0000 </r>
       <r>   10.6433    0.9938 </r>
       <r>   13.4682    0.0000 </r>
       <r>   15.1617    0.0000 </r>
       <r>   16.7487    0.0000 </r>
       <r>   18.5027    0.0000 </r>
      </set>
      <set comment="kpoint 48">
       <r>   -0.9134    1.0000 </r>
       <r>    2.0172    1.0000 </r>
       <r>    9.5741    1.0000 </r>
       <r>   11.3312    0.0000 </r>
       <r>   12.3366    0.0000 </r>
       <r>   14.0498    0.0000 </r>
       <r>   17.3956    0.0000 </r>
       <r>   19.1642    0.0000 </r>
      </set>
      <set comment="kpoint 49">
       <r>   -0.0540    1.0000 </r>
       <r>    0.9236    1.0000 </r>
       <r>   10.3855    0.9999 </r>
       <r>   11.3075    0.0000 </r>
       <r>   12.1301    0.0000 </r>
       <r>   13.0375    0.0000 </r>
       <r>   18.1195    0.0000 </r>
       <r>   18.8806    0.0000 </r>
      </set>
      <set comment="kpoint 50">
       <r>   -2.3952    1.0000 </r>
       <r>    6.2794    1.0000 </r>
       <r>    6.3539    1.0000 </r>
       <r>    9.9526    1.0000 </r>
       <r>   14.6071    0.0000 </r>
       <r>   16.0916    0.0000 </r>
       <r>   17.6293    0.0000 </r>
       <r>   18.4013    0.0000 </r>
      </set>
      <set comment="kpoint 51">
       <r>   -1.9001    1.0000 </r>
       <r>    4.8991    1.0000 </r>
       <r>    6.7914    1.0000 </r>
       <r>   10.4135    0.9996 </r>
       <r>   13.2744    0.0000 </r>
       <r>   16.5397    0.0000 </r>
       <r>   16.6474    0.0000 </r>
       <r>   18.4982    0.0000 </r>
      </set>
      <set comment="kpoint 52">
       <r>   -1.2829    1.0000 </r>
       <r>    3.5854    1.0000 </r>
       <r>    7.3816    1.0000 </r>
       <r>   10.9879    0.0006 </r>
       <r>   12.0288    0.0000 </r>
       <r>   15.4823    0.0000 </r>
       <r>   17.0873    0.0000 </r>
       <r>   18.8986    0.0000 </r>
      </set>
      <set comment="kpoint 53">
       <r>   -0.5446    1.0000 </r>
       <r>    2.3806    1.0000 </r>
       <r>    8.0876    1.0000 </r>
       <r>   10.8820    0.0022 </r>
       <r>   11.6745    0.0000 </r>
       <r>   14.3823    0.0000 </r>
       <r>   17.7216    0.0000 </r>
       <r>   19.2139    0.0000 </r>
      </set>
      <set comment="kpoint 54">
       <r>    0.3132    1.0000 </r>
       <r>    1.2890    1.0000 </r>
       <r>    8.9079    1.0000 </r>
       <r>    9.8403    1.0000 </r>
       <r>   12.4714    0.0000 </r>
       <r>   13.3755    0.0000 </r>
       <r>   18.4086    0.0000 </r>
       <r>   19.0283    0.0000 </r>
      </set>
      <set comment="kpoint 55">
       <r>   -1.4062    1.0000 </r>
       <r>    5.3281    1.0000 </r>
       <r>    5.4274    1.0000 </r>
       <r>   10.8734   -0.0006 </r>
       <r>   11.9235    0.0000 </r>
       <r>   16.7757    0.0000 </r>
       <r>   16.9798    0.0000 </r>
       <r>   17.5470    0.0000 </r>
      </set>
      <set comment="kpoint 56">
       <r>   -0.7905    1.0000 </r>
       <r>    4.0654    1.0000 </r>
       <r>    5.9748    1.0000 </r>
       <r>   10.6637    0.8834 </r>
       <r>   11.4464    0.0000 </r>
       <r>   15.8871    0.0000 </r>
       <r>   17.5098    0.0000 </r>
       <r>   17.7587    0.0000 </r>
      </set>
      <set comment="kpoint 57">
       <r>   -0.0540    1.0000 </r>
       <r>    2.8641    1.0000 </r>
       <r>    6.6862    1.0000 </r>
       <r>    9.5053    1.0000 </r>
       <r>   12.1309    0.0000 </r>
       <r>   14.8195    0.0000 </r>
       <r>   18.1001    0.0000 </r>
       <r>   18.2838    0.0000 </r>
      </set>
      <set comment="kpoint 58">
       <r>    0.8018    1.0000 </r>
       <r>    1.7752    1.0000 </r>
       <r>    7.5134    1.0000 </r>
       <r>    8.4539    1.0000 </r>
       <r>   12.9246    0.0000 </r>
       <r>   13.8236    0.0000 </r>
       <r>   18.6366    0.0000 </r>
       <r>   18.7267    0.0000 </r>
      </set>
      <set comment="kpoint 59">
       <r>   -0.1766    1.0000 </r>
       <r>    4.6052    1.0000 </r>
       <r>    4.7281    1.0000 </r>
       <r>    9.3926    1.0000 </r>
       <r>   12.0173    0.0000 </r>
       <r>   16.1369    0.0000 </r>
       <r>   16.8868    0.0000 </r>
       <r>   17.9951    0.0000 </r>
      </set>
      <set comment="kpoint 60">
       <r>    0.5576    1.0000 </r>
       <r>    3.4660    1.0000 </r>
       <r>    5.3861    1.0000 </r>
       <r>    8.2248    1.0000 </r>
       <r>   12.6987    0.0000 </r>
       <r>   15.3414    0.0000 </r>
       <r>   17.2203    0.0000 </r>
       <r>   18.4345    0.0000 </r>
      </set>
      <set comment="kpoint 61">
       <r>    1.4108    1.0000 </r>
       <r>    2.3811    1.0000 </r>
       <r>    6.2183    1.0000 </r>
       <r>    7.1656    1.0000 </r>
       <r>   13.4872    0.0000 </r>
       <r>   14.3758    0.0000 </r>
       <r>   17.8654    0.0000 </r>
       <r>   18.4261    0.0000 </r>
      </set>
      <set comment="kpoint 62">
       <r>    1.2891    1.0000 </r>
       <r>    4.1194    1.0000 </r>
       <r>    4.2603    1.0000 </r>
       <r>    7.0492    1.0000 </r>
       <r>   13.3749    0.0000 </r>
       <r>   15.7106    0.0000 </r>
       <r>   16.4400    0.0000 </r>
       <r>   18.3249    0.0000 </r>
      </set>
      <set comment="kpoint 63">
       <r>    2.1390    1.0000 </r>
       <r>    3.1050    1.0000 </r>
       <r>    5.0311    1.0000 </r>
       <r>    5.9833    1.0000 </r>
       <r>   14.1534    0.0000 </r>
       <r>   15.0127    0.0000 </r>
       <r>   16.8938    0.0000 </r>
       <r>   17.6544    0.0000 </r>
      </set>
      <set comment="kpoint 64">
       <r>    2.9844    1.0000 </r>
       <r>    3.8754    1.0000 </r>
       <r>    4.0261    1.0000 </r>
       <r>    4.9125    1.0000 </r>
       <r>   14.9030    0.0000 </r>
       <r>   15.4972    0.0000 </r>
       <r>   16.2147    0.0000 </r>
       <r>   16.7846    0.0000 </r>
      </set>
      <set comment="kpoint 65">
       <r>   -2.8914    1.0000 </r>
       <r>    7.6541    1.0000 </r>
       <r>    7.7301    1.0000 </r>
       <r>    7.7301    1.0000 </r>
       <r>   16.9313    0.0000 </r>
       <r>   17.1722    0.0000 </r>
       <r>   17.6028    0.0000 </r>
       <r>   17.6028    0.0000 </r>
      </set>
      <set comment="kpoint 66">
       <r>   -2.5191    1.0000 </r>
       <r>    6.1973    1.0000 </r>
       <r>    8.0330    1.0000 </r>
       <r>    8.0816    1.0000 </r>
       <r>   16.0417    0.0000 </r>
       <r>   16.4141    0.0000 </r>
       <r>   17.3885    0.0000 </r>
       <r>   17.9601    0.0000 </r>
      </set>
      <set comment="kpoint 67">
       <r>   -2.0237    1.0000 </r>
       <r>    4.7801    1.0000 </r>
       <r>    8.5011    1.0000 </r>
       <r>    8.5500    1.0000 </r>
       <r>   14.8006    0.0000 </r>
       <r>   15.0488    0.0000 </r>
       <r>   17.8036    0.0000 </r>
       <r>   18.4059    0.0000 </r>
      </set>
      <set comment="kpoint 68">
       <r>   -1.4061    1.0000 </r>
       <r>    3.4652    1.0000 </r>
       <r>    9.0837    1.0000 </r>
       <r>    9.1351    1.0000 </r>
       <r>   13.6124    0.0000 </r>
       <r>   13.7855    0.0000 </r>
       <r>   18.2824    0.0000 </r>
       <r>   18.8491    0.0000 </r>
      </set>
      <set comment="kpoint 69">
       <r>   -0.6675    1.0000 </r>
       <r>    2.2597    1.0000 </r>
       <r>    9.7786    1.0000 </r>
       <r>    9.8364    1.0000 </r>
       <r>   12.5061    0.0000 </r>
       <r>   12.6298    0.0000 </r>
       <r>   18.8018    0.0000 </r>
       <r>   19.2867    0.0000 </r>
      </set>
      <set comment="kpoint 70">
       <r>    0.1909    1.0000 </r>
       <r>    1.1673    1.0000 </r>
       <r>   10.5830    1.0361 </r>
       <r>   10.6534    0.9471 </r>
       <r>   11.4938    0.0000 </r>
       <r>   11.5850    0.0000 </r>
       <r>   19.2788    0.0000 </r>
       <r>   19.5002    0.0000 </r>
      </set>
      <set comment="kpoint 71">
       <r>   -2.1475    1.0000 </r>
       <r>    6.5177    1.0000 </r>
       <r>    6.5894    1.0000 </r>
       <r>    8.4092    1.0000 </r>
       <r>   14.8168    0.0000 </r>
       <r>   16.3806    0.0000 </r>
       <r>   16.8281    0.0000 </r>
       <r>   17.9084    0.0000 </r>
      </set>
      <set comment="kpoint 72">
       <r>   -1.6529    1.0000 </r>
       <r>    5.1381    1.0000 </r>
       <r>    7.0278    1.0000 </r>
       <r>    8.8768    1.0000 </r>
       <r>   13.4973    0.0000 </r>
       <r>   15.2553    0.0000 </r>
       <r>   17.0570    0.0000 </r>
       <r>   18.3239    0.0000 </r>
      </set>
      <set comment="kpoint 73">
       <r>   -1.0365    1.0000 </r>
       <r>    3.8261    1.0000 </r>
       <r>    7.6174    1.0000 </r>
       <r>    9.4597    1.0000 </r>
       <r>   12.2570    0.0000 </r>
       <r>   14.0394    0.0000 </r>
       <r>   17.5641    0.0000 </r>
       <r>   18.7760    0.0000 </r>
      </set>
      <set comment="kpoint 74">
       <r>   -0.2991    1.0000 </r>
       <r>    2.6228    1.0000 </r>
       <r>    8.3227    1.0000 </r>
       <r>   10.1567    1.0000 </r>
       <r>   11.1130    0.0000 </r>
       <r>   12.9118    0.0000 </r>
       <r>   18.1535    0.0000 </r>
       <r>   19.1642    0.0000 </r>
      </set>
      <set comment="kpoint 75">
       <r>    0.5577    1.0000 </r>
       <r>    1.5324    1.0000 </r>
       <r>    9.1420    1.0000 </r>
       <r>   10.0731    1.0000 </r>
       <r>   10.9660    0.0014 </r>
       <r>   11.8855    0.0000 </r>
       <r>   18.7581    0.0000 </r>
       <r>   19.1970    0.0000 </r>
      </set>
      <set comment="kpoint 76">
       <r>   -1.1596    1.0000 </r>
       <r>    5.5690    1.0000 </r>
       <r>    5.6634    1.0000 </r>
       <r>    9.3434    1.0000 </r>
       <r>   12.1525    0.0000 </r>
       <r>   15.4965    0.0000 </r>
       <r>   15.9545    0.0000 </r>
       <r>   18.7008    0.0000 </r>
      </set>
      <set comment="kpoint 77">
       <r>   -0.5446    1.0000 </r>
       <r>    4.3057    1.0000 </r>
       <r>    6.2125    1.0000 </r>
       <r>    9.9250    1.0000 </r>
       <r>   10.8956    0.0045 </r>
       <r>   14.4758    0.0000 </r>
       <r>   16.3004    0.0000 </r>
       <r>   19.0141    0.0000 </r>
      </set>
      <set comment="kpoint 78">
       <r>    0.1910    1.0000 </r>
       <r>    3.1058    1.0000 </r>
       <r>    6.9233    1.0000 </r>
       <r>    9.7390    1.0000 </r>
       <r>   10.6202    1.0468 </r>
       <r>   13.3633    0.0000 </r>
       <r>   16.9279    0.0000 </r>
       <r>   18.9511    0.0000 </r>
      </set>
      <set comment="kpoint 79">
       <r>    1.0458    1.0000 </r>
       <r>    2.0181    1.0000 </r>
       <r>    7.7496    1.0000 </r>
       <r>    8.6890    1.0000 </r>
       <r>   11.4271    0.0000 </r>
       <r>   12.3431    0.0000 </r>
       <r>   17.6404    0.0000 </r>
       <r>   18.3760    0.0000 </r>
      </set>
      <set comment="kpoint 80">
       <r>    0.0686    1.0000 </r>
       <r>    4.8481    1.0000 </r>
       <r>    4.9643    1.0000 </r>
       <r>    9.6266    1.0000 </r>
       <r>   10.5048    0.9951 </r>
       <r>   14.8428    0.0000 </r>
       <r>   15.2844    0.0000 </r>
       <r>   18.8629    0.0000 </r>
      </set>
      <set comment="kpoint 81">
       <r>    0.8020    1.0000 </r>
       <r>    3.7072    1.0000 </r>
       <r>    5.6247    1.0000 </r>
       <r>    8.4604    1.0000 </r>
       <r>   11.1976    0.0000 </r>
       <r>   13.9182    0.0000 </r>
       <r>   15.7530    0.0000 </r>
       <r>   18.1789    0.0000 </r>
      </set>
      <set comment="kpoint 82">
       <r>    1.6542    1.0000 </r>
       <r>    2.6235    1.0000 </r>
       <r>    6.4561    1.0000 </r>
       <r>    7.4024    1.0000 </r>
       <r>   12.0011    0.0000 </r>
       <r>   12.9115    0.0000 </r>
       <r>   16.4980    0.0000 </r>
       <r>   17.3270    0.0000 </r>
      </set>
      <set comment="kpoint 83">
       <r>    1.5327    1.0000 </r>
       <r>    4.3635    1.0000 </r>
       <r>    4.4967    1.0000 </r>
       <r>    7.2862    1.0000 </r>
       <r>   11.8870    0.0000 </r>
       <r>   14.4065    0.0000 </r>
       <r>   14.8323    0.0000 </r>
       <r>   17.2219    0.0000 </r>
      </set>
      <set comment="kpoint 84">
       <r>    2.3817    1.0000 </r>
       <r>    3.3468    1.0000 </r>
       <r>    5.2701    1.0000 </r>
       <r>    6.2214    1.0000 </r>
       <r>   12.6850    0.0000 </r>
       <r>   13.5825    0.0000 </r>
       <r>   15.4220    0.0000 </r>
       <r>   16.2815    0.0000 </r>
      </set>
      <set comment="kpoint 85">
       <r>    3.2264    1.0000 </r>
       <r>    4.1201    1.0000 </r>
       <r>    4.2625    1.0000 </r>
       <r>    5.1517    1.0000 </r>
       <r>   13.4703    0.0000 </r>
       <r>   14.1880    0.0000 </r>
       <r>   14.6050    0.0000 </r>
       <r>   15.3113    0.0000 </r>
      </set>
      <set comment="kpoint 86">
       <r>   -1.7765    1.0000 </r>
       <r>    6.8425    1.0000 </r>
       <r>    6.9425    1.0000 </r>
       <r>    6.9425    1.0000 </r>
       <r>   14.8720    0.0000 </r>
       <r>   15.3443    0.0000 </r>
       <r>   15.3443    0.0000 </r>
       <r>   19.1925    0.0000 </r>
      </set>
      <set comment="kpoint 87">
       <r>   -1.2828    1.0000 </r>
       <r>    5.4958    1.0000 </r>
       <r>    7.3519    1.0000 </r>
       <r>    7.4132    1.0000 </r>
       <r>   13.7227    0.0000 </r>
       <r>   13.9610    0.0000 </r>
       <r>   15.6572    0.0000 </r>
       <r>   19.5459    0.0000 </r>
      </set>
      <set comment="kpoint 88">
       <r>   -0.6674    1.0000 </r>
       <r>    4.1864    1.0000 </r>
       <r>    7.9414    1.0000 </r>
       <r>    8.0012    1.0000 </r>
       <r>   12.5242    0.0000 </r>
       <r>   12.6843    0.0000 </r>
       <r>   16.1941    0.0000 </r>
       <r>   19.5219    0.0000 </r>
      </set>
      <set comment="kpoint 89">
       <r>    0.0686    1.0000 </r>
       <r>    2.9854    1.0000 </r>
       <r>    8.6448    1.0000 </r>
       <r>    8.7063    1.0000 </r>
       <r>   11.4051    0.0000 </r>
       <r>   11.5184    0.0000 </r>
       <r>   16.8359    0.0000 </r>
       <r>   19.0587    0.0000 </r>
      </set>
      <set comment="kpoint 90">
       <r>    0.9240    1.0000 </r>
       <r>    1.8969    1.0000 </r>
       <r>    9.4592    1.0000 </r>
       <r>    9.5281    1.0000 </r>
       <r>   10.3809    0.9999 </r>
       <r>   10.4658    0.9972 </r>
       <r>   17.5611    0.0000 </r>
       <r>   18.3334    0.0000 </r>
      </set>
      <set comment="kpoint 91">
       <r>   -0.7904    1.0000 </r>
       <r>    5.9291    1.0000 </r>
       <r>    6.0174    1.0000 </r>
       <r>    7.8547    1.0000 </r>
       <r>   12.4919    0.0000 </r>
       <r>   14.1707    0.0000 </r>
       <r>   14.4567    0.0000 </r>
       <r>   19.5557    0.0000 </r>
      </set>
      <set comment="kpoint 92">
       <r>   -0.1764    1.0000 </r>
       <r>    4.6655    1.0000 </r>
       <r>    6.5685    1.0000 </r>
       <r>    8.4422    1.0000 </r>
       <r>   11.2417    0.0000 </r>
       <r>   13.0605    0.0000 </r>
       <r>   14.8834    0.0000 </r>
       <r>   18.9284    0.0000 </r>
      </set>
      <set comment="kpoint 93">
       <r>    0.5580    1.0000 </r>
       <r>    3.4677    1.0000 </r>
       <r>    7.2783    1.0000 </r>
       <r>    9.1449    1.0000 </r>
       <r>   10.0886    1.0000 </r>
       <r>   11.9238    0.0000 </r>
       <r>   15.5434    0.0000 </r>
       <r>   18.0538    0.0000 </r>
      </set>
      <set comment="kpoint 94">
       <r>    1.4113    1.0000 </r>
       <r>    2.3819    1.0000 </r>
       <r>    8.1032    1.0000 </r>
       <r>    9.0409    1.0000 </r>
       <r>    9.9611    1.0000 </r>
       <r>   10.8885    0.0036 </r>
       <r>   16.3055    0.0000 </r>
       <r>   17.1526    0.0000 </r>
      </set>
      <set comment="kpoint 95">
       <r>    0.4358    1.0000 </r>
       <r>    5.2112    1.0000 </r>
       <r>    5.3186    1.0000 </r>
       <r>    9.0281    1.0000 </r>
       <r>    9.9769    1.0000 </r>
       <r>   13.5004    0.0000 </r>
       <r>   13.7790    0.0000 </r>
       <r>   17.9575    0.0000 </r>
      </set>
      <set comment="kpoint 96">
       <r>    1.1680    1.0000 </r>
       <r>    4.0685    1.0000 </r>
       <r>    5.9820    1.0000 </r>
       <r>    8.8131    1.0000 </r>
       <r>    9.7287    1.0000 </r>
       <r>   12.4933    0.0000 </r>
       <r>   14.3278    0.0000 </r>
       <r>   16.9450    0.0000 </r>
      </set>
      <set comment="kpoint 97">
       <r>    2.0188    1.0000 </r>
       <r>    2.9865    1.0000 </r>
       <r>    6.8123    1.0000 </r>
       <r>    7.7570    1.0000 </r>
       <r>   10.5421    1.0031 </r>
       <r>   11.4656    0.0000 </r>
       <r>   15.1052    0.0000 </r>
       <r>   15.9832    0.0000 </r>
      </set>
      <set comment="kpoint 98">
       <r>    1.8976    1.0000 </r>
       <r>    4.7286    1.0000 </r>
       <r>    4.8512    1.0000 </r>
       <r>    7.6411    1.0000 </r>
       <r>   10.4266    0.9992 </r>
       <r>   13.0557    0.0000 </r>
       <r>   13.3228    0.0000 </r>
       <r>   15.8753    0.0000 </r>
      </set>
      <set comment="kpoint 99">
       <r>    2.7452    1.0000 </r>
       <r>    3.7088    1.0000 </r>
       <r>    5.6283    1.0000 </r>
       <r>    6.5782    1.0000 </r>
       <r>   11.2361    0.0000 </r>
       <r>   12.1523    0.0000 </r>
       <r>   13.9926    0.0000 </r>
       <r>   14.8848    0.0000 </r>
      </set>
      <set comment="kpoint 100">
       <r>    3.5887    1.0000 </r>
       <r>    4.4862    1.0000 </r>
       <r>    4.6171    1.0000 </r>
       <r>    5.5101    1.0000 </r>
       <r>   12.0385    0.0000 </r>
       <r>   12.8330    0.0000 </r>
       <r>   13.0936    0.0000 </r>
       <r>   13.8805    0.0000 </r>
      </set>
      <set comment="kpoint 101">
       <r>   -0.2990    1.0000 </r>
       <r>    6.3697    1.0000 </r>
       <r>    6.4891    1.0000 </r>
       <r>    6.4891    1.0000 </r>
       <r>   12.7642    0.0000 </r>
       <r>   13.0634    0.0000 </r>
       <r>   13.0634    0.0000 </r>
       <r>   18.8848    0.0000 </r>
      </set>
      <set comment="kpoint 102">
       <r>    0.3136    1.0000 </r>
       <r>    5.1439    1.0000 </r>
       <r>    7.0075    1.0000 </r>
       <r>    7.0787    1.0000 </r>
       <r>   11.6321    0.0000 </r>
       <r>   11.7793    0.0000 </r>
       <r>   13.5438    0.0000 </r>
       <r>   17.8753    0.0000 </r>
      </set>
      <set comment="kpoint 103">
       <r>    1.0462    1.0000 </r>
       <r>    3.9492    1.0000 </r>
       <r>    7.7172    1.0000 </r>
       <r>    7.7858    1.0000 </r>
       <r>   10.5036    0.9951 </r>
       <r>   10.6079    1.0516 </r>
       <r>   14.2182    0.0000 </r>
       <r>   16.8497    0.0000 </r>
      </set>
      <set comment="kpoint 104">
       <r>    1.8976    1.0000 </r>
       <r>    2.8660    1.0000 </r>
       <r>    8.5393    1.0000 </r>
       <r>    8.6101    1.0000 </r>
       <r>    9.4698    1.0000 </r>
       <r>    9.5511    1.0000 </r>
       <r>   15.0009    0.0000 </r>
       <r>   15.8825    0.0000 </r>
      </set>
      <set comment="kpoint 105">
       <r>    0.9244    1.0000 </r>
       <r>    5.6930    1.0000 </r>
       <r>    5.7910    1.0000 </r>
       <r>    7.6349    1.0000 </r>
       <r>   10.4412    0.9987 </r>
       <r>   12.1990    0.0000 </r>
       <r>   12.3799    0.0000 </r>
       <r>   16.7473    0.0000 </r>
      </set>
      <set comment="kpoint 106">
       <r>    1.6550    1.0000 </r>
       <r>    4.5490    1.0000 </r>
       <r>    6.4574    1.0000 </r>
       <r>    8.3413    1.0000 </r>
       <r>    9.2818    1.0000 </r>
       <r>   11.1359    0.0000 </r>
       <r>   12.9801    0.0000 </r>
       <r>   15.6686    0.0000 </r>
      </set>
      <set comment="kpoint 107">
       <r>    2.5039    1.0000 </r>
       <r>    3.4694    1.0000 </r>
       <r>    7.2861    1.0000 </r>
       <r>    8.2286    1.0000 </r>
       <r>    9.1621    1.0000 </r>
       <r>   10.0949    1.0000 </r>
       <r>   13.7735    0.0000 </r>
       <r>   14.6726    0.0000 </r>
      </set>
      <set comment="kpoint 108">
       <r>    2.3830    1.0000 </r>
       <r>    5.2134    1.0000 </r>
       <r>    5.3239    1.0000 </r>
       <r>    8.1132    1.0000 </r>
       <r>    9.0453    1.0000 </r>
       <r>   11.7455    0.0000 </r>
       <r>   11.9207    0.0000 </r>
       <r>   14.5627    0.0000 </r>
      </set>
      <set comment="kpoint 109">
       <r>    3.2289    1.0000 </r>
       <r>    4.1905    1.0000 </r>
       <r>    6.1048    1.0000 </r>
       <r>    7.0528    1.0000 </r>
       <r>    9.8629    1.0000 </r>
       <r>   10.7906   -0.0477 </r>
       <r>   12.6410    0.0000 </r>
       <r>   13.5501    0.0000 </r>
      </set>
      <set comment="kpoint 110">
       <r>    4.0707    1.0000 </r>
       <r>    4.9723    1.0000 </r>
       <r>    5.0900    1.0000 </r>
       <r>    5.9870    1.0000 </r>
       <r>   10.6755    0.7913 </r>
       <r>   11.5191    0.0000 </r>
       <r>   11.6901    0.0000 </r>
       <r>   12.5277    0.0000 </r>
      </set>
      <set comment="kpoint 111">
       <r>    1.5335    1.0000 </r>
       <r>    6.2517    1.0000 </r>
       <r>    6.3814    1.0000 </r>
       <r>    6.3814    1.0000 </r>
       <r>   10.8989    0.0047 </r>
       <r>   11.0918    0.0000 </r>
       <r>   11.0918    0.0000 </r>
       <r>   15.5627    0.0000 </r>
      </set>
      <set comment="kpoint 112">
       <r>    2.2620    1.0000 </r>
       <r>    5.1475    1.0000 </r>
       <r>    7.0129    1.0000 </r>
       <r>    7.0895    1.0000 </r>
       <r>    9.8177    1.0000 </r>
       <r>    9.9173    1.0000 </r>
       <r>   11.7259    0.0000 </r>
       <r>   14.4547    0.0000 </r>
      </set>
      <set comment="kpoint 113">
       <r>    3.1086    1.0000 </r>
       <r>    4.0713    1.0000 </r>
       <r>    7.8402    1.0000 </r>
       <r>    7.9153    1.0000 </r>
       <r>    8.7771    1.0000 </r>
       <r>    8.8581    1.0000 </r>
       <r>   12.5287    0.0000 </r>
       <r>   13.4403    0.0000 </r>
      </set>
      <set comment="kpoint 114">
       <r>    2.9881    1.0000 </r>
       <r>    5.8156    1.0000 </r>
       <r>    5.9147    1.0000 </r>
       <r>    7.7614    1.0000 </r>
       <r>    8.7009    1.0000 </r>
       <r>   10.5100    0.9952 </r>
       <r>   10.6302    1.0320 </r>
       <r>   13.3290    0.0000 </r>
      </set>
      <set comment="kpoint 115">
       <r>    3.8317    1.0000 </r>
       <r>    4.7907    1.0000 </r>
       <r>    6.6988    1.0000 </r>
       <r>    7.6442    1.0000 </r>
       <r>    8.5850    1.0000 </r>
       <r>    9.5210    1.0000 </r>
       <r>   11.3829    0.0000 </r>
       <r>   12.3028    0.0000 </r>
      </set>
      <set comment="kpoint 116">
       <r>    4.6714    1.0000 </r>
       <r>    5.5766    1.0000 </r>
       <r>    5.6809    1.0000 </r>
       <r>    6.5815    1.0000 </r>
       <r>    9.4045    1.0000 </r>
       <r>   10.2796    1.0000 </r>
       <r>   10.3986    0.9998 </r>
       <r>   11.2685    0.0000 </r>
      </set>
      <set comment="kpoint 117">
       <r>    3.7118    1.0000 </r>
       <r>    6.4930    1.0000 </r>
       <r>    6.6234    1.0000 </r>
       <r>    6.6234    1.0000 </r>
       <r>    9.3141    1.0000 </r>
       <r>    9.4540    1.0000 </r>
       <r>    9.4540    1.0000 </r>
       <r>   12.1901    0.0000 </r>
      </set>
      <set comment="kpoint 118">
       <r>    4.5526    1.0000 </r>
       <r>    5.5081    1.0000 </r>
       <r>    7.3709    1.0000 </r>
       <r>    7.4498    1.0000 </r>
       <r>    8.3111    1.0000 </r>
       <r>    8.3936    1.0000 </r>
       <r>   10.2270    1.0000 </r>
       <r>   11.1543    0.0000 </r>
      </set>
      <set comment="kpoint 119">
       <r>    5.3897    1.0000 </r>
       <r>    6.2964    1.0000 </r>
       <r>    6.3898    1.0000 </r>
       <r>    7.2921    1.0000 </r>
       <r>    8.2367    1.0000 </r>
       <r>    9.1312    1.0000 </r>
       <r>    9.2218    1.0000 </r>
       <r>   10.1115    1.0000 </r>
      </set>
      <set comment="kpoint 120">
       <r>    6.2234    1.0000 </r>
       <r>    7.0896    1.0000 </r>
       <r>    7.2167    1.0000 </r>
       <r>    7.2167    1.0000 </r>
       <r>    8.0399    1.0000 </r>
       <r>    8.1608    1.0000 </r>
       <r>    8.1608    1.0000 </r>
       <r>    9.0620    1.0000 </r>
      </set>
     </set>
    </set>
   </array>
  </eigenvalues>
  <separator name="orbital magnetization" >
   <v name="MAGDIPOLOUT">      0.00000000      0.00000000      0.00000000</v>
  </separator>
  <dos>
   <i name="efermi">     10.70489242 </i>
   <total>
    <array>
     <dimension dim="1">gridpoints</dimension>
     <dimension dim="2">spin</dimension>
     <field>energy</field>
     <field>total</field>
     <field>integrated</field>
     <set>
      <set comment="spin 1">
       <r>    -5.3148     0.0000     0.0000 </r>
       <r>    -5.2193     0.0000     0.0000 </r>
       <r>    -5.1238     0.0000     0.0000 </r>
       <r>    -5.0283     0.0000     0.0000 </r>
       <r>    -4.9328     0.0000     0.0000 </r>
       <r>    -4.8373     0.0000     0.0000 </r>
       <r>    -4.7418     0.0000     0.0000 </r>
       <r>    -4.6463     0.0000     0.0000 </r>
       <r>    -4.5507     0.0000     0.0000 </r>
       <r>    -4.4552     0.0000     0.0000 </r>
       <r>    -4.3597     0.0000     0.0000 </r>
       <r>    -4.2642     0.0001     0.0000 </r>
       <r>    -4.1687    -0.0003     0.0000 </r>
       <r>    -4.0732     0.0011     0.0001 </r>
       <r>    -3.9777     0.0276     0.0027 </r>
       <r>    -3.8822     0.0775     0.0101 </r>
       <r>    -3.7866     0.0936     0.0191 </r>
       <r>    -3.6911     0.0971     0.0283 </r>
       <r>    -3.5956     0.1254     0.0403 </r>
       <r>    -3.5001     0.1830     0.0578 </r>
       <r>    -3.4046     0.1383     0.0710 </r>
       <r>    -3.3091     0.1011     0.0807 </r>
       <r>    -3.2136     0.1943     0.0992 </r>
       <r>    -3.1181     0.2889     0.1268 </r>
       <r>    -3.0226     0.1631     0.1424 </r>
       <r>    -2.9270     0.1113     0.1530 </r>
       <r>    -2.8315     0.2338     0.1753 </r>
       <r>    -2.7360     0.2923     0.2033 </r>
       <r>    -2.6405     0.2081     0.2231 </r>
       <r>    -2.5450     0.2131     0.2435 </r>
       <r>    -2.4495     0.2934     0.2715 </r>
       <r>    -2.3540     0.2950     0.2997 </r>
       <r>    -2.2585     0.2060     0.3194 </r>
       <r>    -2.1629     0.1735     0.3359 </r>
       <r>    -2.0674     0.2331     0.3582 </r>
       <r>    -1.9719     0.5036     0.4063 </r>
       <r>    -1.8764     0.3074     0.4357 </r>
       <r>    -1.7809     0.2286     0.4575 </r>
       <r>    -1.6854     0.2610     0.4824 </r>
       <r>    -1.5899     0.3905     0.5197 </r>
       <r>    -1.4944     0.0758     0.5270 </r>
       <r>    -1.3989     0.3764     0.5629 </r>
       <r>    -1.3033     0.4867     0.6094 </r>
       <r>    -1.2078     0.4436     0.6518 </r>
       <r>    -1.1123     0.1768     0.6687 </r>
       <r>    -1.0168     0.3583     0.7029 </r>
       <r>    -0.9213     0.3816     0.7393 </r>
       <r>    -0.8258     0.3535     0.7731 </r>
       <r>    -0.7303     0.2868     0.8005 </r>
       <r>    -0.6348     0.3773     0.8365 </r>
       <r>    -0.5392     0.4635     0.8808 </r>
       <r>    -0.4437     0.3565     0.9149 </r>
       <r>    -0.3482     0.1956     0.9335 </r>
       <r>    -0.2527     0.4199     0.9736 </r>
       <r>    -0.1572     0.6569     1.0364 </r>
       <r>    -0.0617     0.5083     1.0849 </r>
       <r>     0.0338     0.3128     1.1148 </r>
       <r>     0.1293     0.1896     1.1329 </r>
       <r>     0.2248     0.4928     1.1800 </r>
       <r>     0.3204     0.3303     1.2115 </r>
       <r>     0.4159     0.3036     1.2405 </r>
       <r>     0.5114     0.4412     1.2827 </r>
       <r>     0.6069     0.8133     1.3603 </r>
       <r>     0.7024     0.3194     1.3909 </r>
       <r>     0.7979     0.4552     1.4343 </r>
       <r>     0.8934     0.5325     1.4852 </r>
       <r>     0.9889     0.3709     1.5206 </r>
       <r>     1.0845     0.2781     1.5472 </r>
       <r>     1.1800     0.5238     1.5972 </r>
       <r>     1.2755     0.5342     1.6482 </r>
       <r>     1.3710     0.4532     1.6915 </r>
       <r>     1.4665     0.3894     1.7287 </r>
       <r>     1.5620     0.3960     1.7665 </r>
       <r>     1.6575     0.6849     1.8320 </r>
       <r>     1.7530     0.5920     1.8885 </r>
       <r>     1.8485     0.2766     1.9149 </r>
       <r>     1.9441     0.4875     1.9615 </r>
       <r>     2.0396     0.7839     2.0364 </r>
       <r>     2.1351     0.4022     2.0748 </r>
       <r>     2.2306     0.2673     2.1003 </r>
       <r>     2.3261     0.6287     2.1603 </r>
       <r>     2.4216     0.9179     2.2480 </r>
       <r>     2.5171     0.3027     2.2769 </r>
       <r>     2.6126     0.2701     2.3027 </r>
       <r>     2.7082     0.4216     2.3430 </r>
       <r>     2.8037     0.5019     2.3909 </r>
       <r>     2.8992     0.5770     2.4460 </r>
       <r>     2.9947     0.7259     2.5154 </r>
       <r>     3.0902     0.7385     2.5859 </r>
       <r>     3.1857     0.6348     2.6465 </r>
       <r>     3.2812     0.4879     2.6931 </r>
       <r>     3.3767     0.3685     2.7283 </r>
       <r>     3.4722     0.7605     2.8010 </r>
       <r>     3.5678     0.6472     2.8628 </r>
       <r>     3.6633     0.2600     2.8876 </r>
       <r>     3.7588     0.5041     2.9358 </r>
       <r>     3.8543     0.5077     2.9842 </r>
       <r>     3.9498     0.5051     3.0325 </r>
       <r>     4.0453     0.6239     3.0921 </r>
       <r>     4.1408     0.9831     3.1860 </r>
       <r>     4.2363     0.7018     3.2530 </r>
       <r>     4.3319     0.5223     3.3029 </r>
       <r>     4.4274     0.3154     3.3330 </r>
       <r>     4.5229     0.5682     3.3873 </r>
       <r>     4.6184     0.7768     3.4615 </r>
       <r>     4.7139     0.5386     3.5129 </r>
       <r>     4.8094     0.7502     3.5846 </r>
       <r>     4.9049     0.7311     3.6544 </r>
       <r>     5.0004     0.5698     3.7088 </r>
       <r>     5.0959     0.3345     3.7408 </r>
       <r>     5.1915     0.6683     3.8046 </r>
       <r>     5.2870     0.7598     3.8772 </r>
       <r>     5.3825     0.7267     3.9466 </r>
       <r>     5.4780     0.4401     3.9886 </r>
       <r>     5.5735     0.5548     4.0416 </r>
       <r>     5.6690     0.9011     4.1277 </r>
       <r>     5.7645     0.3968     4.1656 </r>
       <r>     5.8600     0.5945     4.2223 </r>
       <r>     5.9556     0.9279     4.3110 </r>
       <r>     6.0511     0.9479     4.4015 </r>
       <r>     6.1466     0.4372     4.4433 </r>
       <r>     6.2421     0.9480     4.5338 </r>
       <r>     6.3376     0.5718     4.5884 </r>
       <r>     6.4331     0.3978     4.6264 </r>
       <r>     6.5286     0.6676     4.6902 </r>
       <r>     6.6241     0.9457     4.7805 </r>
       <r>     6.7196     0.6923     4.8466 </r>
       <r>     6.8152     0.4588     4.8904 </r>
       <r>     6.9107     0.3296     4.9219 </r>
       <r>     7.0062     0.6321     4.9823 </r>
       <r>     7.1017     1.1891     5.0959 </r>
       <r>     7.1972     0.4973     5.1434 </r>
       <r>     7.2927     0.8187     5.2216 </r>
       <r>     7.3882     1.1620     5.3325 </r>
       <r>     7.4837     0.9147     5.4199 </r>
       <r>     7.5793     0.3025     5.4488 </r>
       <r>     7.6748     0.6689     5.5127 </r>
       <r>     7.7703     0.9749     5.6058 </r>
       <r>     7.8658     0.6982     5.6725 </r>
       <r>     7.9613     0.3772     5.7085 </r>
       <r>     8.0568     0.5488     5.7609 </r>
       <r>     8.1523     0.9421     5.8509 </r>
       <r>     8.2478     0.7369     5.9213 </r>
       <r>     8.3433     0.9445     6.0115 </r>
       <r>     8.4389     0.8274     6.0905 </r>
       <r>     8.5344     0.7394     6.1612 </r>
       <r>     8.6299     0.6101     6.2194 </r>
       <r>     8.7254     0.7654     6.2925 </r>
       <r>     8.8209     0.9014     6.3786 </r>
       <r>     8.9164     0.9982     6.4740 </r>
       <r>     9.0119     0.4821     6.5200 </r>
       <r>     9.1074     0.8004     6.5965 </r>
       <r>     9.2030     0.8809     6.6806 </r>
       <r>     9.2985     0.6975     6.7472 </r>
       <r>     9.3940     0.7217     6.8162 </r>
       <r>     9.4895     1.1348     6.9245 </r>
       <r>     9.5850     0.9788     7.0180 </r>
       <r>     9.6805     0.4664     7.0626 </r>
       <r>     9.7760     0.8898     7.1476 </r>
       <r>     9.8715     0.9135     7.2348 </r>
       <r>     9.9671     0.8357     7.3146 </r>
       <r>    10.0626     0.7562     7.3869 </r>
       <r>    10.1581     1.0840     7.4904 </r>
       <r>    10.2536     0.4618     7.5345 </r>
       <r>    10.3491     0.7712     7.6082 </r>
       <r>    10.4446     1.1927     7.7221 </r>
       <r>    10.5401     0.8939     7.8074 </r>
       <r>    10.6356     1.1516     7.9174 </r>
       <r>    10.7311     1.0511     8.0178 </r>
       <r>    10.8267     0.5566     8.0710 </r>
       <r>    10.9222     0.8172     8.1491 </r>
       <r>    11.0177     0.9339     8.2382 </r>
       <r>    11.1132     0.7146     8.3065 </r>
       <r>    11.2087     1.1833     8.4195 </r>
       <r>    11.3042     0.9936     8.5144 </r>
       <r>    11.3997     0.7630     8.5873 </r>
       <r>    11.4952     1.0776     8.6902 </r>
       <r>    11.5908     0.3867     8.7272 </r>
       <r>    11.6863     0.5309     8.7779 </r>
       <r>    11.7818     0.9563     8.8692 </r>
       <r>    11.8773     0.8422     8.9496 </r>
       <r>    11.9728     1.1213     9.0567 </r>
       <r>    12.0683     0.8144     9.1345 </r>
       <r>    12.1638     0.7267     9.2039 </r>
       <r>    12.2593     0.8247     9.2827 </r>
       <r>    12.3548     1.0818     9.3860 </r>
       <r>    12.4504     0.7065     9.4535 </r>
       <r>    12.5459     0.8922     9.5387 </r>
       <r>    12.6414     0.4925     9.5857 </r>
       <r>    12.7369     1.1426     9.6949 </r>
       <r>    12.8324     0.4799     9.7407 </r>
       <r>    12.9279     0.6542     9.8032 </r>
       <r>    13.0234     0.8669     9.8860 </r>
       <r>    13.1189     0.9285     9.9747 </r>
       <r>    13.2145     0.5289    10.0252 </r>
       <r>    13.3100     0.5857    10.0811 </r>
       <r>    13.4055     1.3782    10.2128 </r>
       <r>    13.5010     1.3738    10.3440 </r>
       <r>    13.5965     1.0388    10.4432 </r>
       <r>    13.6920     0.5230    10.4931 </r>
       <r>    13.7875     0.9267    10.5816 </r>
       <r>    13.8830     0.7984    10.6579 </r>
       <r>    13.9785     0.8866    10.7426 </r>
       <r>    14.0741     1.1107    10.8487 </r>
       <r>    14.1696     0.7363    10.9190 </r>
       <r>    14.2651     0.7817    10.9937 </r>
       <r>    14.3606     0.5579    11.0469 </r>
       <r>    14.4561     1.0050    11.1429 </r>
       <r>    14.5516     0.6868    11.2085 </r>
       <r>    14.6471     0.8521    11.2899 </r>
       <r>    14.7426     1.1153    11.3964 </r>
       <r>    14.8382     1.1510    11.5064 </r>
       <r>    14.9337     0.9506    11.5972 </r>
       <r>    15.0292     1.0900    11.7013 </r>
       <r>    15.1247     1.5059    11.8451 </r>
       <r>    15.2202     0.5713    11.8997 </r>
       <r>    15.3157     0.7394    11.9703 </r>
       <r>    15.4112     1.1965    12.0846 </r>
       <r>    15.5067     0.9656    12.1768 </r>
       <r>    15.6022     0.7108    12.2447 </r>
       <r>    15.6978     1.0331    12.3434 </r>
       <r>    15.7933     0.7640    12.4163 </r>
       <r>    15.8888     0.6540    12.4788 </r>
       <r>    15.9843     1.1880    12.5923 </r>
       <r>    16.0798     1.3563    12.7218 </r>
       <r>    16.1753     0.9665    12.8141 </r>
       <r>    16.2708     1.1324    12.9223 </r>
       <r>    16.3663     1.0444    13.0220 </r>
       <r>    16.4619     0.9243    13.1103 </r>
       <r>    16.5574     1.0241    13.2081 </r>
       <r>    16.6529     0.3449    13.2411 </r>
       <r>    16.7484     1.2045    13.3561 </r>
       <r>    16.8439     1.1407    13.4651 </r>
       <r>    16.9394     1.0470    13.5651 </r>
       <r>    17.0349     0.9961    13.6602 </r>
       <r>    17.1304     0.7919    13.7359 </r>
       <r>    17.2259     0.7878    13.8111 </r>
       <r>    17.3215     1.3292    13.9380 </r>
       <r>    17.4170     1.3501    14.0670 </r>
       <r>    17.5125     0.7127    14.1351 </r>
       <r>    17.6080     1.4252    14.2712 </r>
       <r>    17.7035     1.1195    14.3781 </r>
       <r>    17.7990     0.8134    14.4558 </r>
       <r>    17.8945     0.8768    14.5396 </r>
       <r>    17.9900     1.0277    14.6377 </r>
       <r>    18.0856     0.6189    14.6968 </r>
       <r>    18.1811     0.8045    14.7737 </r>
       <r>    18.2766     0.5231    14.8236 </r>
       <r>    18.3721     1.4506    14.9622 </r>
       <r>    18.4676     1.5670    15.1118 </r>
       <r>    18.5631     1.0226    15.2095 </r>
       <r>    18.6586     1.1976    15.3239 </r>
       <r>    18.7541     1.0297    15.4222 </r>
       <r>    18.8496     0.8402    15.5025 </r>
       <r>    18.9452     0.9137    15.5898 </r>
       <r>    19.0407     0.7375    15.6602 </r>
       <r>    19.1362     0.5918    15.7167 </r>
       <r>    19.2317     1.1630    15.8278 </r>
       <r>    19.3272     0.3744    15.8636 </r>
       <r>    19.4227    -0.0196    15.8617 </r>
       <r>    19.5182     0.1920    15.8800 </r>
       <r>    19.6137     0.4088    15.9191 </r>
       <r>    19.7093     0.1951    15.9377 </r>
       <r>    19.8048     0.2481    15.9614 </r>
       <r>    19.9003     0.1296    15.9738 </r>
       <r>    19.9958     0.0805    15.9815 </r>
       <r>    20.0913     0.0346    15.9848 </r>
       <r>    20.1868    -0.0048    15.9843 </r>
       <r>    20.2823     0.0005    15.9844 </r>
       <r>    20.3778     0.0000    15.9844 </r>
       <r>    20.4733     0.0000    15.9844 </r>
       <r>    20.5689     0.0000    15.9844 </r>
       <r>    20.6644     0.0000    15.9844 </r>
       <r>    20.7599     0.0002    15.9844 </r>
       <r>    20.8554    -0.0005    15.9843 </r>
       <r>    20.9509    -0.0018    15.9842 </r>
       <r>    21.0464     0.0965    15.9934 </r>
       <r>    21.1419     0.0327    15.9965 </r>
       <r>    21.2374    -0.0049    15.9960 </r>
       <r>    21.3330     0.0005    15.9961 </r>
       <r>    21.4285     0.0000    15.9961 </r>
       <r>    21.5240     0.0000    15.9961 </r>
       <r>    21.6195     0.0000    15.9961 </r>
       <r>    21.7150     0.0000    15.9961 </r>
       <r>    21.8105     0.0002    15.9961 </r>
       <r>    21.9060    -0.0013    15.9960 </r>
       <r>    22.0015     0.0079    15.9967 </r>
       <r>    22.0970     0.0338    16.0000 </r>
       <r>    22.1926     0.0007    16.0000 </r>
       <r>    22.2881    -0.0004    16.0000 </r>
       <r>    22.3836     0.0001    16.0000 </r>
       <r>    22.4791     0.0000    16.0000 </r>
       <r>    22.5746     0.0000    16.0000 </r>
       <r>    22.6701     0.0000    16.0000 </r>
       <r>    22.7656     0.0000    16.0000 </r>
       <r>    22.8611     0.0000    16.0000 </r>
       <r>    22.9567     0.0000    16.0000 </r>
       <r>    23.0522     0.0000    16.0000 </r>
       <r>    23.1477     0.0000    16.0000 </r>
       <r>    23.2432     0.0000    16.0000 </r>
       <r>    23.3387     0.0000    16.0000 </r>
      </set>
     </set>
    </array>
   </total>
  </dos>
 </calculation>
 <structure name="finalpos" >
  <crystal>
   <varray name="basis" >
    <v>       3.01703472       0.00000000       0.00000000 </v>
    <v>       0.00000000       3.01703472       0.00000000 </v>
    <v>       0.00000000       0.00000000       3.01703472 </v>
   </varray>
   <i name="volume">     27.46255390 </i>
   <varray name="rec_basis" >
    <v>       0.33145127       0.00000000       0.00000000 </v>
    <v>       0.00000000       0.33145127       0.00000000 </v>
    <v>       0.00000000       0.00000000       0.33145127 </v>
   </varray>
  </crystal>
  <varray name="positions" >
   <v>       0.00000000       0.00000000       0.00000000 </v>
   <v>       0.50000000       0.50000000       0.50000000 </v>
  </varray>
 </structure>
</modeling>
