<?xml version="1.0" encoding="ISO-8859-1"?>
<modeling>
 <generator>
  <i name="program" type="string">vasp </i>
  <i name="version" type="string">5.4.1  </i>
  <i name="subversion" type="string">24Jun15 (build Jul  8 2015 13:29:37) complex                          parallel </i>
  <i name="platform" type="string">FX10FRT </i>
  <i name="date" type="string">2016 02 20 </i>
  <i name="time" type="string">07:07:24 </i>
 </generator>
 <incar>
  <i type="string" name="PREC">accurate</i>
  <i type="string" name="ALGO"> Normal</i>
  <i type="int" name="ISPIN">     1</i>
  <i type="int" name="IBRION">    -1</i>
  <i name="EDIFF">      0.00010000</i>
  <i type="int" name="NSW">     0</i>
  <i type="int" name="ISIF">     2</i>
  <i name="ENCUT">    400.00000000</i>
  <i type="int" name="ISMEAR">     2</i>
  <i name="SIGMA">      0.10000000</i>
  <i type="int" name="NWRITE">     1</i>
  <v type="int" name="KPOINT_BSE">    -1     0     0     0</v>
 </incar>
 <kpoints>
  <generation param="Monkhorst-Pack">
   <v type="int" name="divisions">       9        9        9 </v>
   <v name="usershift">      0.00000000       0.00000000       0.00000000 </v>
   <v name="genvec1">      0.11111111       0.00000000       0.00000000 </v>
   <v name="genvec2">      0.00000000       0.11111111       0.00000000 </v>
   <v name="genvec3">      0.00000000       0.00000000       0.11111111 </v>
   <v name="shift">      0.00000000       0.00000000       0.00000000 </v>
  </generation>
  <varray name="kpointlist" >
   <v>       0.00000000       0.00000000       0.00000000 </v>
   <v>       0.11111111       0.00000000       0.00000000 </v>
   <v>       0.22222222       0.00000000       0.00000000 </v>
   <v>       0.33333333       0.00000000       0.00000000 </v>
   <v>       0.44444444       0.00000000       0.00000000 </v>
   <v>       0.11111111       0.11111111       0.00000000 </v>
   <v>       0.22222222       0.11111111       0.00000000 </v>
   <v>       0.33333333       0.11111111       0.00000000 </v>
   <v>       0.44444444       0.11111111       0.00000000 </v>
   <v>       0.22222222       0.22222222       0.00000000 </v>
   <v>       0.33333333       0.22222222       0.00000000 </v>
   <v>       0.44444444       0.22222222       0.00000000 </v>
   <v>       0.33333333       0.33333333       0.00000000 </v>
   <v>       0.44444444       0.33333333       0.00000000 </v>
   <v>       0.44444444       0.44444444       0.00000000 </v>
   <v>       0.11111111       0.11111111       0.11111111 </v>
   <v>       0.22222222       0.11111111       0.11111111 </v>
   <v>       0.33333333       0.11111111       0.11111111 </v>
   <v>       0.44444444       0.11111111       0.11111111 </v>
   <v>       0.22222222       0.22222222       0.11111111 </v>
   <v>       0.33333333       0.22222222       0.11111111 </v>
   <v>       0.44444444       0.22222222       0.11111111 </v>
   <v>       0.33333333       0.33333333       0.11111111 </v>
   <v>       0.44444444       0.33333333       0.11111111 </v>
   <v>       0.44444444       0.44444444       0.11111111 </v>
   <v>       0.22222222       0.22222222       0.22222222 </v>
   <v>       0.33333333       0.22222222       0.22222222 </v>
   <v>       0.44444444       0.22222222       0.22222222 </v>
   <v>       0.33333333       0.33333333       0.22222222 </v>
   <v>       0.44444444       0.33333333       0.22222222 </v>
   <v>       0.44444444       0.44444444       0.22222222 </v>
   <v>       0.33333333       0.33333333       0.33333333 </v>
   <v>       0.44444444       0.33333333       0.33333333 </v>
   <v>       0.44444444       0.44444444       0.33333333 </v>
   <v>       0.44444444       0.44444444       0.44444444 </v>
  </varray>
  <varray name="weights" >
   <v>       0.00137174 </v>
   <v>       0.00823045 </v>
   <v>       0.00823045 </v>
   <v>       0.00823045 </v>
   <v>       0.00823045 </v>
   <v>       0.01646091 </v>
   <v>       0.03292181 </v>
   <v>       0.03292181 </v>
   <v>       0.03292181 </v>
   <v>       0.01646091 </v>
   <v>       0.03292181 </v>
   <v>       0.03292181 </v>
   <v>       0.01646091 </v>
   <v>       0.03292181 </v>
   <v>       0.01646091 </v>
   <v>       0.01097394 </v>
   <v>       0.03292181 </v>
   <v>       0.03292181 </v>
   <v>       0.03292181 </v>
   <v>       0.03292181 </v>
   <v>       0.06584362 </v>
   <v>       0.06584362 </v>
   <v>       0.03292181 </v>
   <v>       0.06584362 </v>
   <v>       0.03292181 </v>
   <v>       0.01097394 </v>
   <v>       0.03292181 </v>
   <v>       0.03292181 </v>
   <v>       0.03292181 </v>
   <v>       0.06584362 </v>
   <v>       0.03292181 </v>
   <v>       0.01097394 </v>
   <v>       0.03292181 </v>
   <v>       0.03292181 </v>
   <v>       0.01097394 </v>
  </varray>
 </kpoints>
 <parameters>
  <separator name="general" >
   <i type="string" name="SYSTEM">unknown system</i>
   <i type="logical" name="LCOMPAT"> F  </i>
  </separator>
  <separator name="electronic" >
   <i type="string" name="PREC">accura</i>
   <i name="ENMAX">    400.00000000</i>
   <i name="ENAUG">    322.06900000</i>
   <i name="EDIFF">      0.00010000</i>
   <i type="int" name="IALGO">    38</i>
   <i type="int" name="IWAVPR">    10</i>
   <i type="int" name="NBANDS">    24</i>
   <i name="NELECT">     32.00000000</i>
   <i type="int" name="TURBO">     0</i>
   <i type="int" name="IRESTART">     0</i>
   <i type="int" name="NREBOOT">     0</i>
   <i type="int" name="NMIN">     0</i>
   <i name="EREF">      0.00000000</i>
   <separator name="electronic smearing" >
    <i type="int" name="ISMEAR">     2</i>
    <i name="SIGMA">      0.10000000</i>
    <i name="KSPACING">      0.50000000</i>
    <i type="logical" name="KGAMMA"> T  </i>
   </separator>
   <separator name="electronic projectors" >
    <i type="logical" name="LREAL"> F  </i>
    <v name="ROPT">      0.00000000</v>
    <i type="int" name="LMAXPAW">  -100</i>
    <i type="int" name="LMAXMIX">     2</i>
    <i type="logical" name="NLSPLINE"> F  </i>
   </separator>
   <separator name="electronic startup" >
    <i type="int" name="ISTART">     0</i>
    <i type="int" name="ICHARG">     2</i>
    <i type="int" name="INIWAV">     1</i>
   </separator>
   <separator name="electronic spin" >
    <i type="int" name="ISPIN">     1</i>
    <i type="logical" name="LNONCOLLINEAR"> F  </i>
    <v name="MAGMOM">      1.00000000      1.00000000      1.00000000      1.00000000      1.00000000      1.00000000      1.00000000      1.00000000</v>
    <i name="NUPDOWN">     -1.00000000</i>
    <i type="logical" name="LSORBIT"> F  </i>
    <v name="SAXIS">      0.00000000      0.00000000      1.00000000</v>
    <i type="logical" name="LSPIRAL"> F  </i>
    <v name="QSPIRAL">      0.00000000      0.00000000      0.00000000</v>
    <i type="logical" name="LZEROZ"> F  </i>
   </separator>
   <separator name="electronic exchange-correlation" >
    <i type="logical" name="LASPH"> F  </i>
    <i type="logical" name="LMETAGGA"> F  </i>
   </separator>
   <separator name="electronic convergence" >
    <i type="int" name="NELM">    60</i>
    <i type="int" name="NELMDL">    -5</i>
    <i type="int" name="NELMIN">     2</i>
    <i name="ENINI">    400.00000000</i>
    <separator name="electronic convergence detail" >
     <i type="logical" name="LDIAG"> T  </i>
     <i type="logical" name="LSUBROT"> F  </i>
     <i name="WEIMIN">      0.00000000</i>
     <i name="EBREAK">      0.00000104</i>
     <i name="DEPER">      0.30000000</i>
     <i type="int" name="NRMM">     4</i>
     <i name="TIME">      0.40000000</i>
    </separator>
   </separator>
   <separator name="electronic mixer" >
    <i name="AMIX">      0.40000000</i>
    <i name="BMIX">      1.00000000</i>
    <i name="AMIN">      0.10000000</i>
    <i name="AMIX_MAG">      1.60000000</i>
    <i name="BMIX_MAG">      1.00000000</i>
    <separator name="electronic mixer details" >
     <i type="int" name="IMIX">     4</i>
     <i type="logical" name="MIXFIRST"> F  </i>
     <i type="int" name="MAXMIX">   -45</i>
     <i name="WC">    100.00000000</i>
     <i type="int" name="INIMIX">     1</i>
     <i type="int" name="MIXPRE">     1</i>
     <i type="int" name="MREMOVE">     5</i>
    </separator>
   </separator>
   <separator name="electronic dipolcorrection" >
    <i type="logical" name="LDIPOL"> F  </i>
    <i type="logical" name="LMONO"> F  </i>
    <i type="int" name="IDIPOL">     0</i>
    <i name="EPSILON">      1.00000000</i>
    <v name="DIPOL">   -100.00000000   -100.00000000   -100.00000000</v>
    <i name="EFIELD">      0.00000000</i>
   </separator>
  </separator>
  <separator name="grids" >
   <i type="int" name="NGX">    36</i>
   <i type="int" name="NGY">    36</i>
   <i type="int" name="NGZ">    36</i>
   <i type="int" name="NGXF">    72</i>
   <i type="int" name="NGYF">    72</i>
   <i type="int" name="NGZF">    72</i>
   <i type="logical" name="ADDGRID"> F  </i>
  </separator>
  <separator name="ionic" >
   <i type="int" name="NSW">     0</i>
   <i type="int" name="IBRION">    -1</i>
   <i type="int" name="ISIF">     2</i>
   <i name="PSTRESS">      0.00000000</i>
   <i name="EDIFFG">      0.00100000</i>
   <i type="int" name="NFREE">     0</i>
   <i name="POTIM">      0.50000000</i>
   <i name="SMASS">     -3.00000000</i>
   <i name="SCALEE">      1.00000000</i>
  </separator>
  <separator name="ionic md" >
   <i name="TEBEG">      0.00010000</i>
   <i name="TEEND">      0.00010000</i>
   <i type="int" name="NBLOCK">     1</i>
   <i type="int" name="KBLOCK">     1</i>
   <i type="int" name="NPACO">   256</i>
   <i name="APACO">     16.00000000</i>
  </separator>
  <separator name="symmetry" >
   <i type="int" name="ISYM">     2</i>
   <i name="SYMPREC">      0.00001000</i>
  </separator>
  <separator name="dos" >
   <i type="logical" name="LORBIT"> F  </i>
   <v name="RWIGS">     -1.00000000</v>
   <i type="int" name="NEDOS">   301</i>
   <i name="EMIN">     10.00000000</i>
   <i name="EMAX">    -10.00000000</i>
   <i name="EFERMI">      0.00000000</i>
  </separator>
  <separator name="writing" >
   <i type="int" name="NWRITE">     1</i>
   <i type="logical" name="LWAVE"> T  </i>
   <i type="logical" name="LCHARG"> T  </i>
   <i type="logical" name="LPARD"> F  </i>
   <i type="logical" name="LVTOT"> F  </i>
   <i type="logical" name="LVHAR"> F  </i>
   <i type="logical" name="LELF"> F  </i>
   <i type="logical" name="LOPTICS"> F  </i>
   <v name="STM">      0.00000000      0.00000000      0.00000000      0.00000000      0.00000000      0.00000000      0.00000000</v>
  </separator>
  <separator name="performance" >
   <i type="int" name="NPAR">     8</i>
   <i type="int" name="NSIM">     4</i>
   <i type="int" name="NBLK">    -1</i>
   <i type="logical" name="LPLANE"> T  </i>
   <i type="logical" name="LSCALAPACK"> T  </i>
   <i type="logical" name="LSCAAWARE"> F  </i>
   <i type="logical" name="LSCALU"> F  </i>
   <i type="logical" name="LASYNC"> F  </i>
   <i type="logical" name="LORBITALREAL"> F  </i>
  </separator>
  <separator name="miscellaneous" >
   <i type="int" name="IDIOT">     3</i>
   <i type="logical" name="LMUSIC"> F  </i>
   <v name="POMASS">     28.08500000</v>
   <v name="DARWINR">      0.00000000</v>
   <v name="DARWINV">      1.00000000</v>
   <i type="logical" name="LCORR"> T  </i>
  </separator>
  <i type="logical" name="GGA_COMPAT"> T  </i>
  <i type="logical" name="LBERRY"> F  </i>
  <i type="int" name="ICORELEVEL">     0</i>
  <i type="logical" name="LDAU"> F  </i>
  <i type="int" name="I_CONSTRAINED_M">     0</i>
  <separator name="electronic exchange-correlation" >
   <i type="string" name="GGA">--</i>
   <i type="int" name="VOSKOWN">     0</i>
   <i type="logical" name="LHFCALC"> F  </i>
   <i type="string" name="PRECFOCK"></i>
   <i type="logical" name="LSYMGRAD"> F  </i>
   <i type="logical" name="LHFONE"> F  </i>
   <i type="logical" name="LRHFCALC"> F  </i>
   <i type="logical" name="LTHOMAS"> F  </i>
   <i type="logical" name="LMODELHF"> F  </i>
   <i name="ENCUT4O">     -1.00000000</i>
   <i type="int" name="EXXOEP">     0</i>
   <i type="int" name="FOURORBIT">     0</i>
   <i name="AEXX">      0.00000000</i>
   <i name="HFALPHA">      0.00000000</i>
   <i name="MCALPHA">      0.00000000</i>
   <i name="ALDAX">      1.00000000</i>
   <i name="AGGAX">      1.00000000</i>
   <i name="ALDAC">      1.00000000</i>
   <i name="AGGAC">      1.00000000</i>
   <i type="int" name="NKREDX">     1</i>
   <i type="int" name="NKREDY">     1</i>
   <i type="int" name="NKREDZ">     1</i>
   <i type="logical" name="SHIFTRED"> F  </i>
   <i type="logical" name="ODDONLY"> F  </i>
   <i type="logical" name="EVENONLY"> F  </i>
   <i type="int" name="LMAXFOCK">     0</i>
   <i type="int" name="NMAXFOCKAE">     0</i>
   <i type="logical" name="LFOCKAEDFT"> F  </i>
   <i name="HFSCREEN">      0.00000000</i>
   <i name="HFSCREENC">      0.00000000</i>
   <i type="int" name="NBANDSGWLOW">     0</i>
  </separator>
  <separator name="vdW DFT" >
   <i type="logical" name="LUSE_VDW"> F  </i>
   <i name="Zab_VDW">     -0.84910000</i>
   <i name="PARAM1">      0.12340000</i>
   <i name="PARAM2">      1.00000000</i>
   <i name="PARAM3">      0.00000000</i>
  </separator>
  <separator name="model GW" >
   <i type="int" name="MODEL_GW">     0</i>
   <i name="MODEL_EPS0">     11.49367807</i>
   <i name="MODEL_ALPHA">      1.00000000</i>
  </separator>
  <separator name="linear response parameters" >
   <i type="logical" name="LEPSILON"> F  </i>
   <i type="logical" name="LRPA"> F  </i>
   <i type="logical" name="LNABLA"> F  </i>
   <i type="logical" name="LVEL"> F  </i>
   <i type="int" name="KINTER">     0</i>
   <i name="CSHIFT">      0.10000000</i>
   <i name="OMEGAMAX">     -1.00000000</i>
   <i name="DEG_THRESHOLD">      0.00200000</i>
  </separator>
  <separator name="orbital magnetization" >
   <i type="logical" name="NUCIND"> F  </i>
   <v name="MAGPOS">      0.00000000      0.00000000      0.00000000</v>
   <i type="logical" name="LNICSALL"> T  </i>
   <i type="logical" name="ORBITALMAG"> F  </i>
   <i type="logical" name="LMAGBLOCH"> F  </i>
   <i type="logical" name="LCHIMAG"> F  </i>
   <i type="logical" name="LGAUGE"> T  </i>
   <i type="int" name="MAGATOM">     0</i>
   <v name="MAGDIPOL">      0.00000000      0.00000000      0.00000000</v>
   <v name="AVECCONST">      0.00000000      0.00000000      0.00000000</v>
  </separator>
  <separator name="response functions" >
   <i type="logical" name="LADDER"> F  </i>
   <i type="logical" name="LFXC"> F  </i>
   <i type="logical" name="LHARTREE"> T  </i>
   <i type="int" name="IBSE">     0</i>
   <v type="int" name="KPOINT">    -1     0     0     0</v>
   <i type="logical" name="LTCTE"> F  </i>
   <i type="logical" name="LTETE"> F  </i>
   <i type="logical" name="LTRIPLET"> F  </i>
   <i type="logical" name="LFXCEPS"> F  </i>
   <i type="logical" name="LFXHEG"> F  </i>
   <i type="int" name="NATURALO">     0</i>
   <i type="logical" name="L2ORDER"> F  </i>
   <i type="logical" name="LUSEW"> F  </i>
   <i name="ENCUTGW">     -2.00000000</i>
   <i name="ENCUTGWSOFT">     -2.00000000</i>
   <i name="ENCUTLF">     -1.00000000</i>
   <i type="int" name="LMAXMP2">    -1</i>
   <i name="SCISSOR">      0.00000000</i>
   <i type="int" name="NOMEGA">     0</i>
   <i type="int" name="NOMEGAR">     0</i>
   <i type="int" name="NBANDSGW">    -1</i>
   <i type="int" name="NBANDSO">    -1</i>
   <i type="int" name="NBANDSV">    -1</i>
   <i type="int" name="NELM">     1</i>
   <i type="int" name="NELMHF">     1</i>
   <i type="int" name="DIM">     3</i>
   <i type="int" name="ANTIRES">     0</i>
   <i name="OMEGAMAX">    -30.00000000</i>
   <i name="OMEGAMIN">    -30.00000000</i>
   <i name="OMEGATL">   -200.00000000</i>
   <i type="int" name="OMEGAGRID">     0</i>
   <i name="CSHIFT">     -0.10000000</i>
   <i type="logical" name="SELFENERGY"> F  </i>
   <i type="logical" name="LSPECTRAL"> F  </i>
   <i type="logical" name="LSPECTRALGW"> F  </i>
   <i type="logical" name="LSINGLES"> F  </i>
   <i type="logical" name="LFERMIGW"> F  </i>
   <i type="logical" name="ODDONLYGW"> F  </i>
   <i type="logical" name="EVENONLYGW"> F  </i>
   <i type="int" name="NKREDLFX">     1</i>
   <i type="int" name="NKREDLFY">     1</i>
   <i type="int" name="NKREDLFZ">     1</i>
   <i type="int" name="MAXMEM">  1800</i>
   <i type="int" name="TELESCOPE">     0</i>
   <i type="int" name="TAUPAR">     1</i>
   <i type="int" name="OMEGAPAR">    -1</i>
   <i name="LAMBDA">      1.00000000</i>
  </separator>
  <separator name="External order field" >
   <i name="OFIELD_KAPPA">      0.00000000</i>
   <v name="OFIELD_K">      0.00000000      0.00000000      0.00000000</v>
   <i name="OFIELD_Q6_NEAR">      0.00000000</i>
   <i name="OFIELD_Q6_FAR">      0.00000000</i>
   <i name="OFIELD_A">      0.00000000</i>
  </separator>
 </parameters>
 <atominfo>
  <atoms>       8 </atoms>
  <types>       1 </types>
  <array name="atoms" >
   <dimension dim="1">ion</dimension>
   <field type="string">element</field>
   <field type="int">atomtype</field>
   <set>
    <rc><c>Si</c><c>   1</c></rc>
    <rc><c>Si</c><c>   1</c></rc>
    <rc><c>Si</c><c>   1</c></rc>
    <rc><c>Si</c><c>   1</c></rc>
    <rc><c>Si</c><c>   1</c></rc>
    <rc><c>Si</c><c>   1</c></rc>
    <rc><c>Si</c><c>   1</c></rc>
    <rc><c>Si</c><c>   1</c></rc>
   </set>
  </array>
  <array name="atomtypes" >
   <dimension dim="1">type</dimension>
   <field type="int">atomspertype</field>
   <field type="string">element</field>
   <field>mass</field>
   <field>valence</field>
   <field type="string">pseudopotential</field>
   <set>
    <rc><c>   8</c><c>Si</c><c>     28.08500000</c><c>      4.00000000</c><c>  PAW_PBE Si 05Jan2001                  </c></rc>
   </set>
  </array>
 </atominfo>
 <structure name="initialpos" >
  <crystal>
   <varray name="basis" >
    <v>       5.35138161       0.00000000       0.00000000 </v>
    <v>       0.00000000       5.35138161       0.00000000 </v>
    <v>       0.00000000       0.00000000       5.35138161 </v>
   </varray>
   <i name="volume">    153.24904094 </i>
   <varray name="rec_basis" >
    <v>       0.18686763       0.00000000       0.00000000 </v>
    <v>       0.00000000       0.18686763       0.00000000 </v>
    <v>       0.00000000       0.00000000       0.18686763 </v>
   </varray>
  </crystal>
  <varray name="positions" >
   <v>       0.00000000       0.00000000       0.00000000 </v>
   <v>       0.25000000       0.25000000       0.25000000 </v>
   <v>       0.50000000       0.50000000       0.00000000 </v>
   <v>       0.75000000       0.75000000       0.25000000 </v>
   <v>       0.50000000       0.00000000       0.50000000 </v>
   <v>       0.75000000       0.25000000       0.75000000 </v>
   <v>       0.00000000       0.50000000       0.50000000 </v>
   <v>       0.25000000       0.75000000       0.75000000 </v>
  </varray>
 </structure>
 <calculation>
  <scstep>
   <time name="dav">    0.86    0.91</time>
   <time name="total">    0.92    1.00</time>
   <energy>
    <i name="alphaZ">     14.05842645 </i>
    <i name="ewald">   -927.68565251 </i>
    <i name="hartreedc">    -41.41742745 </i>
    <i name="XCdc">    -73.70993782 </i>
    <i name="pawpsdc">    704.99039692 </i>
    <i name="pawaedc">   -564.24414232 </i>
    <i name="eentropy">      0.00080809 </i>
    <i name="bandstr">    123.29688518 </i>
    <i name="atom">    824.52596983 </i>
    <i name="e_fr_energy">     59.81532636 </i>
    <i name="e_wo_entrp">     59.81451827 </i>
    <i name="e_0_energy">     59.81512434 </i>
   </energy>
  </scstep>
  <scstep>
   <time name="dav">    1.05    1.05</time>
   <time name="total">    1.05    1.07</time>
   <energy>
    <i name="e_fr_energy">    -39.47048381 </i>
    <i name="e_wo_entrp">    -39.47046631 </i>
    <i name="e_0_energy">    -39.47047944 </i>
   </energy>
  </scstep>
  <scstep>
   <time name="dav">    1.01    1.01</time>
   <time name="total">    1.01    1.03</time>
   <energy>
    <i name="e_fr_energy">    -43.94912154 </i>
    <i name="e_wo_entrp">    -43.94921848 </i>
    <i name="e_0_energy">    -43.94914577 </i>
   </energy>
  </scstep>
  <scstep>
   <time name="dav">    0.97    0.97</time>
   <time name="total">    0.97    0.99</time>
   <energy>
    <i name="e_fr_energy">    -44.02312666 </i>
    <i name="e_wo_entrp">    -44.02322663 </i>
    <i name="e_0_energy">    -44.02315165 </i>
   </energy>
  </scstep>
  <scstep>
   <time name="dav">    1.00    1.01</time>
   <time name="total">    1.08    1.11</time>
   <energy>
    <i name="e_fr_energy">    -44.02489515 </i>
    <i name="e_wo_entrp">    -44.02499557 </i>
    <i name="e_0_energy">    -44.02492026 </i>
   </energy>
  </scstep>
  <scstep>
   <time name="dav">    0.92    0.92</time>
   <time name="total">    1.01    1.03</time>
   <energy>
    <i name="e_fr_energy">    -43.44616032 </i>
    <i name="e_wo_entrp">    -43.44626835 </i>
    <i name="e_0_energy">    -43.44618732 </i>
   </energy>
  </scstep>
  <scstep>
   <time name="dav">    0.91    0.91</time>
   <time name="total">    1.01    1.02</time>
   <energy>
    <i name="e_fr_energy">    -43.19166733 </i>
    <i name="e_wo_entrp">    -43.19178628 </i>
    <i name="e_0_energy">    -43.19169707 </i>
   </energy>
  </scstep>
  <scstep>
   <time name="dav">    0.96    0.96</time>
   <time name="total">    1.05    1.07</time>
   <energy>
    <i name="e_fr_energy">    -43.19549475 </i>
    <i name="e_wo_entrp">    -43.19561335 </i>
    <i name="e_0_energy">    -43.19552440 </i>
   </energy>
  </scstep>
  <scstep>
   <time name="dav">    1.01    1.01</time>
   <time name="total">    1.11    1.12</time>
   <energy>
    <i name="e_fr_energy">    -43.19624716 </i>
    <i name="e_wo_entrp">    -43.19636613 </i>
    <i name="e_0_energy">    -43.19627690 </i>
   </energy>
  </scstep>
  <scstep>
   <time name="dav">    0.93    0.93</time>
   <time name="total">    1.03    1.04</time>
   <energy>
    <i name="e_fr_energy">    -43.19645124 </i>
    <i name="e_wo_entrp">    -43.19657033 </i>
    <i name="e_0_energy">    -43.19648101 </i>
   </energy>
  </scstep>
  <scstep>
   <time name="dav">    0.73    0.73</time>
   <time name="total">    0.77    0.78</time>
   <energy>
    <i name="alphaZ">     14.05842645 </i>
    <i name="ewald">   -927.68565251 </i>
    <i name="hartreedc">    -57.60102302 </i>
    <i name="XCdc">    -71.03448754 </i>
    <i name="pawpsdc">   3832.44224984 </i>
    <i name="pawaedc">  -3692.75688408 </i>
    <i name="eentropy">      0.00011907 </i>
    <i name="bandstr">     34.85482995 </i>
    <i name="atom">    824.52596983 </i>
    <i name="e_fr_energy">    -43.19645201 </i>
    <i name="e_wo_entrp">    -43.19657109 </i>
    <i name="e_0_energy">    -43.19648178 </i>
   </energy>
  </scstep>
  <structure>
   <crystal>
    <varray name="basis" >
     <v>       5.35138161       0.00000000       0.00000000 </v>
     <v>       0.00000000       5.35138161       0.00000000 </v>
     <v>       0.00000000       0.00000000       5.35138161 </v>
    </varray>
    <i name="volume">    153.24904094 </i>
    <varray name="rec_basis" >
     <v>       0.18686763       0.00000000       0.00000000 </v>
     <v>       0.00000000       0.18686763       0.00000000 </v>
     <v>       0.00000000       0.00000000       0.18686763 </v>
    </varray>
   </crystal>
   <varray name="positions" >
    <v>       0.00000000       0.00000000       0.00000000 </v>
    <v>       0.25000000       0.25000000       0.25000000 </v>
    <v>       0.50000000       0.50000000       0.00000000 </v>
    <v>       0.75000000       0.75000000       0.25000000 </v>
    <v>       0.50000000       0.00000000       0.50000000 </v>
    <v>       0.75000000       0.25000000       0.75000000 </v>
    <v>       0.00000000       0.50000000       0.50000000 </v>
    <v>       0.25000000       0.75000000       0.75000000 </v>
   </varray>
  </structure>
  <varray name="forces" >
   <v>       0.00000000       0.00000000       0.00000000 </v>
   <v>       0.00000000       0.00000000       0.00000000 </v>
   <v>       0.00000000       0.00000000       0.00000000 </v>
   <v>       0.00000000       0.00000000       0.00000000 </v>
   <v>       0.00000000       0.00000000       0.00000000 </v>
   <v>       0.00000000       0.00000000       0.00000000 </v>
   <v>       0.00000000       0.00000000       0.00000000 </v>
   <v>       0.00000000       0.00000000       0.00000000 </v>
  </varray>
  <varray name="stress" >
   <v>      66.36593965       0.00000000       0.00000000 </v>
   <v>       0.00000000      66.36593965       0.00000000 </v>
   <v>       0.00000000       0.00000000      66.36593965 </v>
  </varray>
  <energy>
   <i name="e_fr_energy">    -43.19645201 </i>
   <i name="e_wo_entrp">    -43.19648178 </i>
   <i name="e_0_energy">      0.00011907 </i>
  </energy>
  <time name="totalsc">   12.86   13.14</time>
  <eigenvalues>
   <array>
    <dimension dim="1">band</dimension>
    <dimension dim="2">kpoint</dimension>
    <dimension dim="3">spin</dimension>
    <field>eigene</field>
    <field>occ</field>
    <set>
     <set comment="spin 1">
      <set comment="kpoint 1">
       <r>   -5.9858    1.0000 </r>
       <r>   -1.6783    1.0000 </r>
       <r>   -1.6783    1.0000 </r>
       <r>   -1.6783    1.0000 </r>
       <r>   -1.6783    1.0000 </r>
       <r>   -1.6783    1.0000 </r>
       <r>   -1.6783    1.0000 </r>
       <r>    3.3145    1.0000 </r>
       <r>    3.3145    1.0000 </r>
       <r>    3.3145    1.0000 </r>
       <r>    3.3145    1.0000 </r>
       <r>    3.3145    1.0000 </r>
       <r>    3.3145    1.0000 </r>
       <r>    6.2813    0.8330 </r>
       <r>    6.2813    0.8330 </r>
       <r>    6.2813    0.8330 </r>
       <r>    6.9009    0.0000 </r>
       <r>    6.9009    0.0000 </r>
       <r>    6.9009    0.0000 </r>
       <r>    6.9009    0.0000 </r>
       <r>    6.9009    0.0000 </r>
       <r>    6.9009    0.0000 </r>
       <r>    8.8641    0.0000 </r>
       <r>    8.8641    0.0000 </r>
      </set>
      <set comment="kpoint 2">
       <r>   -5.9297    1.0000 </r>
       <r>   -2.5368    1.0000 </r>
       <r>   -1.6586    1.0000 </r>
       <r>   -1.6586    1.0000 </r>
       <r>   -1.6586    1.0000 </r>
       <r>   -1.6586    1.0000 </r>
       <r>   -0.7533    1.0000 </r>
       <r>    3.1511    1.0000 </r>
       <r>    3.1511    1.0000 </r>
       <r>    3.1511    1.0000 </r>
       <r>    3.1511    1.0000 </r>
       <r>    3.3649    1.0000 </r>
       <r>    3.3649    1.0000 </r>
       <r>    5.9615    1.0000 </r>
       <r>    6.0562    0.9985 </r>
       <r>    6.0562    0.9985 </r>
       <r>    6.7792    0.0000 </r>
       <r>    7.1733    0.0000 </r>
       <r>    7.2032    0.0000 </r>
       <r>    7.2032    0.0000 </r>
       <r>    7.2032    0.0000 </r>
       <r>    7.2032    0.0000 </r>
       <r>    8.7299    0.0000 </r>
       <r>    9.1583    0.0000 </r>
      </set>
      <set comment="kpoint 3">
       <r>   -5.7617    1.0000 </r>
       <r>   -3.3164    1.0000 </r>
       <r>   -1.6066    1.0000 </r>
       <r>   -1.6066    1.0000 </r>
       <r>   -1.6066    1.0000 </r>
       <r>   -1.6066    1.0000 </r>
       <r>    0.2232    1.0000 </r>
       <r>    2.7992    1.0000 </r>
       <r>    2.7992    1.0000 </r>
       <r>    2.7992    1.0000 </r>
       <r>    2.7992    1.0000 </r>
       <r>    3.5153    1.0000 </r>
       <r>    3.5153    1.0000 </r>
       <r>    5.2098    1.0000 </r>
       <r>    5.5689    1.0000 </r>
       <r>    5.5689    1.0000 </r>
       <r>    6.7975    0.0000 </r>
       <r>    7.6058    0.0000 </r>
       <r>    7.9756    0.0000 </r>
       <r>    7.9756    0.0000 </r>
       <r>    7.9756    0.0000 </r>
       <r>    7.9756    0.0000 </r>
       <r>    8.3918    0.0000 </r>
       <r>    9.8506    0.0000 </r>
      </set>
      <set comment="kpoint 4">
       <r>   -5.4830    1.0000 </r>
       <r>   -4.0073    1.0000 </r>
       <r>   -1.5435    1.0000 </r>
       <r>   -1.5435    1.0000 </r>
       <r>   -1.5435    1.0000 </r>
       <r>   -1.5435    1.0000 </r>
       <r>    1.2339    1.0000 </r>
       <r>    2.4634    1.0000 </r>
       <r>    2.4634    1.0000 </r>
       <r>    2.4634    1.0000 </r>
       <r>    2.4634    1.0000 </r>
       <r>    3.7638    1.0000 </r>
       <r>    3.7638    1.0000 </r>
       <r>    4.2806    1.0000 </r>
       <r>    5.0327    1.0000 </r>
       <r>    5.0327    1.0000 </r>
       <r>    6.9436    0.0000 </r>
       <r>    7.9699    0.0000 </r>
       <r>    8.2041    0.0000 </r>
       <r>    9.0225    0.0000 </r>
       <r>    9.0225    0.0000 </r>
       <r>    9.0225    0.0000 </r>
       <r>    9.0225    0.0000 </r>
       <r>   10.7242    0.0000 </r>
      </set>
      <set comment="kpoint 5">
       <r>   -5.0955    1.0000 </r>
       <r>   -4.6023    1.0000 </r>
       <r>   -1.4996    1.0000 </r>
       <r>   -1.4996    1.0000 </r>
       <r>   -1.4996    1.0000 </r>
       <r>   -1.4996    1.0000 </r>
       <r>    2.2602    1.0000 </r>
       <r>    2.2667    1.0000 </r>
       <r>    2.2667    1.0000 </r>
       <r>    2.2667    1.0000 </r>
       <r>    2.2667    1.0000 </r>
       <r>    3.2834    1.0000 </r>
       <r>    4.1059    1.0000 </r>
       <r>    4.1059    1.0000 </r>
       <r>    4.5339    1.0000 </r>
       <r>    4.5339    1.0000 </r>
       <r>    7.2030    0.0000 </r>
       <r>    7.5555    0.0000 </r>
       <r>    8.9639    0.0000 </r>
       <r>    9.8544    0.0000 </r>
       <r>   10.1849    0.0000 </r>
       <r>   10.1849    0.0000 </r>
       <r>   10.1849    0.0000 </r>
       <r>   10.1849    0.0000 </r>
      </set>
      <set comment="kpoint 6">
       <r>   -5.8737    1.0000 </r>
       <r>   -2.5043    1.0000 </r>
       <r>   -2.5043    1.0000 </r>
       <r>   -1.7265    1.0000 </r>
       <r>   -1.5582    1.0000 </r>
       <r>   -0.7536    1.0000 </r>
       <r>   -0.7536    1.0000 </r>
       <r>    2.7067    1.0000 </r>
       <r>    3.1747    1.0000 </r>
       <r>    3.1747    1.0000 </r>
       <r>    3.2389    1.0000 </r>
       <r>    3.2389    1.0000 </r>
       <r>    3.4043    1.0000 </r>
       <r>    5.4146    1.0000 </r>
       <r>    5.8310    1.0000 </r>
       <r>    6.2322    1.0456 </r>
       <r>    7.0052    0.0000 </r>
       <r>    7.0962    0.0000 </r>
       <r>    7.0962    0.0000 </r>
       <r>    7.4562    0.0000 </r>
       <r>    7.4562    0.0000 </r>
       <r>    7.8758    0.0000 </r>
       <r>    8.9788    0.0000 </r>
       <r>    9.0789    0.0000 </r>
      </set>
      <set comment="kpoint 7">
       <r>   -5.7064    1.0000 </r>
       <r>   -3.2756    1.0000 </r>
       <r>   -2.4115    1.0000 </r>
       <r>   -1.7821    1.0000 </r>
       <r>   -1.4188    1.0000 </r>
       <r>   -0.7646    1.0000 </r>
       <r>    0.1909    1.0000 </r>
       <r>    2.2773    1.0000 </r>
       <r>    2.7614    1.0000 </r>
       <r>    2.9766    1.0000 </r>
       <r>    3.3066    1.0000 </r>
       <r>    3.3313    1.0000 </r>
       <r>    3.4409    1.0000 </r>
       <r>    4.6752    1.0000 </r>
       <r>    5.3418    1.0000 </r>
       <r>    5.9346    1.0000 </r>
       <r>    7.1243    0.0000 </r>
       <r>    7.4077    0.0000 </r>
       <r>    7.8654    0.0000 </r>
       <r>    7.8920    0.0000 </r>
       <r>    8.1951    0.0000 </r>
       <r>    8.6960    0.0000 </r>
       <r>    8.8339    0.0000 </r>
       <r>    9.5993    0.0000 </r>
      </set>
      <set comment="kpoint 8">
       <r>   -5.4287    1.0000 </r>
       <r>   -3.9610    1.0000 </r>
       <r>   -2.2728    1.0000 </r>
       <r>   -1.8542    1.0000 </r>
       <r>   -1.2481    1.0000 </r>
       <r>   -0.8107    1.0000 </r>
       <r>    1.1506    1.0000 </r>
       <r>    1.9890    1.0000 </r>
       <r>    2.3407    1.0000 </r>
       <r>    2.7620    1.0000 </r>
       <r>    3.0706    1.0000 </r>
       <r>    3.5429    1.0000 </r>
       <r>    3.7597    1.0000 </r>
       <r>    3.8686    1.0000 </r>
       <r>    4.8032    1.0000 </r>
       <r>    5.3566    1.0000 </r>
       <r>    7.2753    0.0000 </r>
       <r>    8.2695    0.0000 </r>
       <r>    8.2878    0.0000 </r>
       <r>    8.4376    0.0000 </r>
       <r>    8.9565    0.0000 </r>
       <r>    9.2112    0.0000 </r>
       <r>    9.9612    0.0000 </r>
       <r>   10.2759    0.0000 </r>
      </set>
      <set comment="kpoint 9">
       <r>   -5.0430    1.0000 </r>
       <r>   -4.5523    1.0000 </r>
       <r>   -2.1133    1.0000 </r>
       <r>   -1.9652    1.0000 </r>
       <r>   -1.0685    1.0000 </r>
       <r>   -0.9132    1.0000 </r>
       <r>    1.9041    1.0000 </r>
       <r>    2.0325    1.0000 </r>
       <r>    2.0983    1.0000 </r>
       <r>    2.7029    1.0000 </r>
       <r>    2.8219    1.0000 </r>
       <r>    3.0090    1.0000 </r>
       <r>    3.8782    1.0000 </r>
       <r>    4.1960    1.0000 </r>
       <r>    4.3037    1.0000 </r>
       <r>    4.7410    1.0000 </r>
       <r>    7.5348    0.0000 </r>
       <r>    7.8828    0.0000 </r>
       <r>    9.1704    0.0000 </r>
       <r>    9.3825    0.0000 </r>
       <r>   10.0250    0.0000 </r>
       <r>   10.1637    0.0000 </r>
       <r>   10.2030    0.0000 </r>
       <r>   11.0255    0.0000 </r>
      </set>
      <set comment="kpoint 10">
       <r>   -5.5409    1.0000 </r>
       <r>   -3.1562    1.0000 </r>
       <r>   -3.1562    1.0000 </r>
       <r>   -1.9729    1.0000 </r>
       <r>   -1.1990    1.0000 </r>
       <r>    0.0856    1.0000 </r>
       <r>    0.0856    1.0000 </r>
       <r>    1.8942    1.0000 </r>
       <r>    2.8525    1.0000 </r>
       <r>    2.8525    1.0000 </r>
       <r>    3.3040    1.0000 </r>
       <r>    3.3040    1.0000 </r>
       <r>    3.6680    1.0000 </r>
       <r>    3.9477    1.0000 </r>
       <r>    4.8472    1.0000 </r>
       <r>    6.0554    0.9985 </r>
       <r>    7.3126    0.0000 </r>
       <r>    7.9333    0.0000 </r>
       <r>    7.9333    0.0000 </r>
       <r>    8.5603    0.0000 </r>
       <r>    8.5603    0.0000 </r>
       <r>    9.3215    0.0000 </r>
       <r>    9.4505    0.0000 </r>
       <r>    9.5571    0.0000 </r>
      </set>
      <set comment="kpoint 11">
       <r>   -5.2667    1.0000 </r>
       <r>   -3.8240    1.0000 </r>
       <r>   -2.9673    1.0000 </r>
       <r>   -2.1996    1.0000 </r>
       <r>   -0.9411    1.0000 </r>
       <r>   -0.1031    1.0000 </r>
       <r>    0.9143    1.0000 </r>
       <r>    1.7149    1.0000 </r>
       <r>    2.3757    1.0000 </r>
       <r>    3.0631    1.0000 </r>
       <r>    3.2058    1.0000 </r>
       <r>    3.2434    1.0000 </r>
       <r>    3.6792    1.0000 </r>
       <r>    3.7845    1.0000 </r>
       <r>    4.3036    1.0000 </r>
       <r>    5.7022    1.0000 </r>
       <r>    7.8048    0.0000 </r>
       <r>    8.0878    0.0000 </r>
       <r>    9.0038    0.0000 </r>
       <r>    9.0470    0.0000 </r>
       <r>    9.0802    0.0000 </r>
       <r>    9.5297    0.0000 </r>
       <r>    9.7436    0.0000 </r>
       <r>   10.3922    0.0000 </r>
      </set>
      <set comment="kpoint 12">
       <r>   -4.8862    1.0000 </r>
       <r>   -4.4035    1.0000 </r>
       <r>   -2.7263    1.0000 </r>
       <r>   -2.4596    1.0000 </r>
       <r>   -0.6538    1.0000 </r>
       <r>   -0.3618    1.0000 </r>
       <r>    1.7048    1.0000 </r>
       <r>    1.7542    1.0000 </r>
       <r>    1.9890    1.0000 </r>
       <r>    2.4623    1.0000 </r>
       <r>    3.3185    1.0000 </r>
       <r>    3.3840    1.0000 </r>
       <r>    3.4995    1.0000 </r>
       <r>    3.8035    1.0000 </r>
       <r>    4.3968    1.0000 </r>
       <r>    5.0773    1.0000 </r>
       <r>    8.3408    0.0000 </r>
       <r>    8.6719    0.0000 </r>
       <r>    8.7370    0.0000 </r>
       <r>    9.7557    0.0000 </r>
       <r>    9.8533    0.0000 </r>
       <r>   10.2219    0.0000 </r>
       <r>   10.2924    0.0000 </r>
       <r>   10.6486    0.0000 </r>
      </set>
      <set comment="kpoint 13">
       <r>   -4.9986    1.0000 </r>
       <r>   -3.6022    1.0000 </r>
       <r>   -3.6022    1.0000 </r>
       <r>   -2.5756    1.0000 </r>
       <r>   -0.6034    1.0000 </r>
       <r>    0.5680    1.0000 </r>
       <r>    0.5680    1.0000 </r>
       <r>    1.6586    1.0000 </r>
       <r>    2.5257    1.0000 </r>
       <r>    2.5510    1.0000 </r>
       <r>    2.5510    1.0000 </r>
       <r>    3.7574    1.0000 </r>
       <r>    3.8833    1.0000 </r>
       <r>    3.8833    1.0000 </r>
       <r>    4.0858    1.0000 </r>
       <r>    5.7028    1.0000 </r>
       <r>    7.8028    0.0000 </r>
       <r>    9.1533    0.0000 </r>
       <r>    9.1533    0.0000 </r>
       <r>    9.4536    0.0000 </r>
       <r>    9.8911    0.0000 </r>
       <r>    9.9705    0.0000 </r>
       <r>    9.9705    0.0000 </r>
       <r>   10.2057    0.0000 </r>
      </set>
      <set comment="kpoint 14">
       <r>   -4.6278    1.0000 </r>
       <r>   -4.1597    1.0000 </r>
       <r>   -3.3066    1.0000 </r>
       <r>   -2.9555    1.0000 </r>
       <r>   -0.2295    1.0000 </r>
       <r>    0.1705    1.0000 </r>
       <r>    1.2152    1.0000 </r>
       <r>    1.8025    1.0000 </r>
       <r>    1.8621    1.0000 </r>
       <r>    2.1129    1.0000 </r>
       <r>    2.8509    1.0000 </r>
       <r>    3.2600    1.0000 </r>
       <r>    4.0402    1.0000 </r>
       <r>    4.1651    1.0000 </r>
       <r>    4.6078    1.0000 </r>
       <r>    5.2822    1.0000 </r>
       <r>    8.3633    0.0000 </r>
       <r>    9.3334    0.0000 </r>
       <r>    9.3894    0.0000 </r>
       <r>    9.5595    0.0000 </r>
       <r>    9.6870    0.0000 </r>
       <r>    9.9606    0.0000 </r>
       <r>   10.3625    0.0000 </r>
       <r>   10.6534    0.0000 </r>
      </set>
      <set comment="kpoint 15">
       <r>   -4.2725    1.0000 </r>
       <r>   -3.8281    1.0000 </r>
       <r>   -3.8281    1.0000 </r>
       <r>   -3.4205    1.0000 </r>
       <r>    0.2232    1.0000 </r>
       <r>    0.7090    1.0000 </r>
       <r>    0.7090    1.0000 </r>
       <r>    1.2717    1.0000 </r>
       <r>    2.0211    1.0000 </r>
       <r>    2.3810    1.0000 </r>
       <r>    2.3810    1.0000 </r>
       <r>    2.7718    1.0000 </r>
       <r>    4.6176    1.0000 </r>
       <r>    4.7313    1.0000 </r>
       <r>    4.7313    1.0000 </r>
       <r>    5.1914    1.0000 </r>
       <r>    8.4258    0.0000 </r>
       <r>    9.0088    0.0000 </r>
       <r>    9.0088    0.0000 </r>
       <r>    9.0599    0.0000 </r>
       <r>   10.5692    0.0000 </r>
       <r>   10.5692    0.0000 </r>
       <r>   10.6842    0.0000 </r>
       <r>   11.0339    0.0000 </r>
      </set>
      <set comment="kpoint 16">
       <r>   -5.8180    1.0000 </r>
       <r>   -2.4774    1.0000 </r>
       <r>   -2.4774    1.0000 </r>
       <r>   -2.4774    1.0000 </r>
       <r>   -0.7575    1.0000 </r>
       <r>   -0.7575    1.0000 </r>
       <r>   -0.7575    1.0000 </r>
       <r>    2.7783    1.0000 </r>
       <r>    2.7783    1.0000 </r>
       <r>    2.7783    1.0000 </r>
       <r>    3.4539    1.0000 </r>
       <r>    3.4539    1.0000 </r>
       <r>    3.4539    1.0000 </r>
       <r>    4.9262    1.0000 </r>
       <r>    6.0332    0.9994 </r>
       <r>    6.0332    0.9994 </r>
       <r>    7.0493    0.0000 </r>
       <r>    7.0493    0.0000 </r>
       <r>    7.0493    0.0000 </r>
       <r>    7.9760    0.0000 </r>
       <r>    7.9760    0.0000 </r>
       <r>    7.9760    0.0000 </r>
       <r>    8.9353    0.0000 </r>
       <r>    9.2296    0.0000 </r>
      </set>
      <set comment="kpoint 17">
       <r>   -5.6513    1.0000 </r>
       <r>   -3.2373    1.0000 </r>
       <r>   -2.4044    1.0000 </r>
       <r>   -2.4044    1.0000 </r>
       <r>   -0.7748    1.0000 </r>
       <r>   -0.7748    1.0000 </r>
       <r>    0.1450    1.0000 </r>
       <r>    2.3705    1.0000 </r>
       <r>    2.3705    1.0000 </r>
       <r>    2.9962    1.0000 </r>
       <r>    3.3910    1.0000 </r>
       <r>    3.3910    1.0000 </r>
       <r>    3.6018    1.0000 </r>
       <r>    4.2047    1.0000 </r>
       <r>    5.5853    1.0000 </r>
       <r>    5.8382    1.0000 </r>
       <r>    7.1829    0.0000 </r>
       <r>    7.4651    0.0000 </r>
       <r>    7.4651    0.0000 </r>
       <r>    8.2744    0.0000 </r>
       <r>    8.8488    0.0000 </r>
       <r>    8.9128    0.0000 </r>
       <r>    8.9128    0.0000 </r>
       <r>    9.3299    0.0000 </r>
      </set>
      <set comment="kpoint 18">
       <r>   -5.3749    1.0000 </r>
       <r>   -3.9161    1.0000 </r>
       <r>   -2.3110    1.0000 </r>
       <r>   -2.3110    1.0000 </r>
       <r>   -0.8115    1.0000 </r>
       <r>   -0.8115    1.0000 </r>
       <r>    1.0396    1.0000 </r>
       <r>    2.0920    1.0000 </r>
       <r>    2.0920    1.0000 </r>
       <r>    3.1648    1.0000 </r>
       <r>    3.1648    1.0000 </r>
       <r>    3.3667    1.0000 </r>
       <r>    3.4569    1.0000 </r>
       <r>    3.8456    1.0000 </r>
       <r>    5.0772    1.0000 </r>
       <r>    5.2462    1.0000 </r>
       <r>    7.4060    0.0000 </r>
       <r>    8.3253    0.0000 </r>
       <r>    8.3253    0.0000 </r>
       <r>    8.4937    0.0000 </r>
       <r>    8.7655    0.0000 </r>
       <r>    9.9871    0.0000 </r>
       <r>   10.0266    0.0000 </r>
       <r>   10.0266    0.0000 </r>
      </set>
      <set comment="kpoint 19">
       <r>   -4.9910    1.0000 </r>
       <r>   -4.5031    1.0000 </r>
       <r>   -2.2417    1.0000 </r>
       <r>   -2.2417    1.0000 </r>
       <r>   -0.8484    1.0000 </r>
       <r>   -0.8484    1.0000 </r>
       <r>    1.8934    1.0000 </r>
       <r>    1.9666    1.0000 </r>
       <r>    1.9666    1.0000 </r>
       <r>    2.6938    1.0000 </r>
       <r>    2.9885    1.0000 </r>
       <r>    2.9885    1.0000 </r>
       <r>    3.8914    1.0000 </r>
       <r>    4.1803    1.0000 </r>
       <r>    4.5439    1.0000 </r>
       <r>    4.5966    1.0000 </r>
       <r>    7.7128    0.0000 </r>
       <r>    8.0868    0.0000 </r>
       <r>    9.4305    0.0000 </r>
       <r>    9.4305    0.0000 </r>
       <r>    9.4375    0.0000 </r>
       <r>   10.2267    0.0000 </r>
       <r>   10.6711    0.0000 </r>
       <r>   10.6711    0.0000 </r>
      </set>
      <set comment="kpoint 20">
       <r>   -5.4866    1.0000 </r>
       <r>   -3.1267    1.0000 </r>
       <r>   -3.1267    1.0000 </r>
       <r>   -2.4000    1.0000 </r>
       <r>   -0.7939    1.0000 </r>
       <r>    0.0046    1.0000 </r>
       <r>    0.0046    1.0000 </r>
       <r>    2.0408    1.0000 </r>
       <r>    2.6476    1.0000 </r>
       <r>    2.6476    1.0000 </r>
       <r>    3.4949    1.0000 </r>
       <r>    3.5741    1.0000 </r>
       <r>    3.5741    1.0000 </r>
       <r>    3.7147    1.0000 </r>
       <r>    5.2347    1.0000 </r>
       <r>    5.9239    1.0000 </r>
       <r>    7.3795    0.0000 </r>
       <r>    7.6334    0.0000 </r>
       <r>    7.6334    0.0000 </r>
       <r>    8.9433    0.0000 </r>
       <r>    9.1525    0.0000 </r>
       <r>    9.1525    0.0000 </r>
       <r>    9.4455    0.0000 </r>
       <r>    9.8196    0.0000 </r>
      </set>
      <set comment="kpoint 21">
       <r>   -5.2139    1.0000 </r>
       <r>   -3.7838    1.0000 </r>
       <r>   -2.9571    1.0000 </r>
       <r>   -2.4422    1.0000 </r>
       <r>   -0.7781    1.0000 </r>
       <r>   -0.2167    1.0000 </r>
       <r>    0.7432    1.0000 </r>
       <r>    1.9110    1.0000 </r>
       <r>    2.3709    1.0000 </r>
       <r>    2.7868    1.0000 </r>
       <r>    3.0857    1.0000 </r>
       <r>    3.4597    1.0000 </r>
       <r>    3.7335    1.0000 </r>
       <r>    3.8952    1.0000 </r>
       <r>    4.7061    1.0000 </r>
       <r>    5.5958    1.0000 </r>
       <r>    7.8683    0.0000 </r>
       <r>    7.9005    0.0000 </r>
       <r>    8.4896    0.0000 </r>
       <r>    8.9572    0.0000 </r>
       <r>    9.5612    0.0000 </r>
       <r>    9.6030    0.0000 </r>
       <r>   10.2185    0.0000 </r>
       <r>   10.3609    0.0000 </r>
      </set>
      <set comment="kpoint 22">
       <r>   -4.8359    1.0000 </r>
       <r>   -4.3570    1.0000 </r>
       <r>   -2.7556    1.0000 </r>
       <r>   -2.5667    1.0000 </r>
       <r>   -0.6707    1.0000 </r>
       <r>   -0.4660    1.0000 </r>
       <r>    1.4337    1.0000 </r>
       <r>    1.9647    1.0000 </r>
       <r>    2.1042    1.0000 </r>
       <r>    2.1398    1.0000 </r>
       <r>    3.4511    1.0000 </r>
       <r>    3.5796    1.0000 </r>
       <r>    3.6149    1.0000 </r>
       <r>    4.1606    1.0000 </r>
       <r>    4.3763    1.0000 </r>
       <r>    4.9917    1.0000 </r>
       <r>    8.2450    0.0000 </r>
       <r>    8.6300    0.0000 </r>
       <r>    8.7926    0.0000 </r>
       <r>    9.5615    0.0000 </r>
       <r>   10.0136    0.0000 </r>
       <r>   10.1440    0.0000 </r>
       <r>   10.2298    0.0000 </r>
       <r>   10.8676    0.0000 </r>
      </set>
      <set comment="kpoint 23">
       <r>   -4.9479    1.0000 </r>
       <r>   -3.5717    1.0000 </r>
       <r>   -3.5717    1.0000 </r>
       <r>   -2.6786    1.0000 </r>
       <r>   -0.6472    1.0000 </r>
       <r>    0.3499    1.0000 </r>
       <r>    0.3499    1.0000 </r>
       <r>    1.9288    1.0000 </r>
       <r>    2.1182    1.0000 </r>
       <r>    2.7539    1.0000 </r>
       <r>    2.7539    1.0000 </r>
       <r>    3.9641    1.0000 </r>
       <r>    3.9641    1.0000 </r>
       <r>    4.1263    1.0000 </r>
       <r>    4.1866    1.0000 </r>
       <r>    5.6475    1.0000 </r>
       <r>    7.8660    0.0000 </r>
       <r>    8.7505    0.0000 </r>
       <r>    8.7505    0.0000 </r>
       <r>    9.1607    0.0000 </r>
       <r>    9.8273    0.0000 </r>
       <r>   10.1213    0.0000 </r>
       <r>   10.4134    0.0000 </r>
       <r>   10.4134    0.0000 </r>
      </set>
      <set comment="kpoint 24">
       <r>   -4.5808    1.0000 </r>
       <r>   -4.1187    1.0000 </r>
       <r>   -3.2954    1.0000 </r>
       <r>   -2.9825    1.0000 </r>
       <r>   -0.3977    1.0000 </r>
       <r>   -0.0513    1.0000 </r>
       <r>    0.9082    1.0000 </r>
       <r>    1.4913    1.0000 </r>
       <r>    2.1114    1.0000 </r>
       <r>    2.4066    1.0000 </r>
       <r>    3.1898    1.0000 </r>
       <r>    3.6696    1.0000 </r>
       <r>    4.0967    1.0000 </r>
       <r>    4.2083    1.0000 </r>
       <r>    4.6141    1.0000 </r>
       <r>    5.2529    1.0000 </r>
       <r>    8.4174    0.0000 </r>
       <r>    9.0773    0.0000 </r>
       <r>    9.2894    0.0000 </r>
       <r>    9.3752    0.0000 </r>
       <r>    9.6709    0.0000 </r>
       <r>    9.8474    0.0000 </r>
       <r>    9.9623    0.0000 </r>
       <r>   10.8310    0.0000 </r>
      </set>
      <set comment="kpoint 25">
       <r>   -4.2313    1.0000 </r>
       <r>   -3.7973    1.0000 </r>
       <r>   -3.7973    1.0000 </r>
       <r>   -3.4091    1.0000 </r>
       <r>   -0.0362    1.0000 </r>
       <r>    0.4053    1.0000 </r>
       <r>    0.4053    1.0000 </r>
       <r>    0.9190    1.0000 </r>
       <r>    2.3868    1.0000 </r>
       <r>    2.7592    1.0000 </r>
       <r>    2.7592    1.0000 </r>
       <r>    3.1875    1.0000 </r>
       <r>    4.6446    1.0000 </r>
       <r>    4.7508    1.0000 </r>
       <r>    4.7508    1.0000 </r>
       <r>    5.1900    1.0000 </r>
       <r>    8.4689    0.0000 </r>
       <r>    9.0281    0.0000 </r>
       <r>    9.0281    0.0000 </r>
       <r>    9.0290    0.0000 </r>
       <r>   10.1377    0.0000 </r>
       <r>   10.1377    0.0000 </r>
       <r>   10.4256    0.0000 </r>
       <r>   10.5400    0.0000 </r>
      </set>
      <set comment="kpoint 26">
       <r>   -5.3245    1.0000 </r>
       <r>   -3.0465    1.0000 </r>
       <r>   -3.0465    1.0000 </r>
       <r>   -3.0465    1.0000 </r>
       <r>   -0.2078    1.0000 </r>
       <r>   -0.2078    1.0000 </r>
       <r>   -0.2078    1.0000 </r>
       <r>    2.4693    1.0000 </r>
       <r>    2.4693    1.0000 </r>
       <r>    2.4693    1.0000 </r>
       <r>    2.7932    1.0000 </r>
       <r>    3.8539    1.0000 </r>
       <r>    3.8539    1.0000 </r>
       <r>    3.8539    1.0000 </r>
       <r>    5.5945    1.0000 </r>
       <r>    5.5945    1.0000 </r>
       <r>    7.5763    0.0000 </r>
       <r>    7.5763    0.0000 </r>
       <r>    7.5763    0.0000 </r>
       <r>    8.5650    0.0000 </r>
       <r>    9.7647    0.0000 </r>
       <r>    9.7648    0.0000 </r>
       <r>   10.1472    0.0000 </r>
       <r>   10.1472    0.0000 </r>
      </set>
      <set comment="kpoint 27">
       <r>   -5.0565    1.0000 </r>
       <r>   -3.6673    1.0000 </r>
       <r>   -2.9430    1.0000 </r>
       <r>   -2.9430    1.0000 </r>
       <r>   -0.4597    1.0000 </r>
       <r>   -0.4597    1.0000 </r>
       <r>    0.3494    1.0000 </r>
       <r>    2.1091    1.0000 </r>
       <r>    2.4313    1.0000 </r>
       <r>    2.4313    1.0000 </r>
       <r>    3.1270    1.0000 </r>
       <r>    3.8991    1.0000 </r>
       <r>    3.8991    1.0000 </r>
       <r>    4.0814    1.0000 </r>
       <r>    5.1811    1.0000 </r>
       <r>    5.3861    1.0000 </r>
       <r>    7.8887    0.0000 </r>
       <r>    8.0551    0.0000 </r>
       <r>    8.0551    0.0000 </r>
       <r>    8.6720    0.0000 </r>
       <r>    9.5820    0.0000 </r>
       <r>   10.2012    0.0000 </r>
       <r>   10.4932    0.0000 </r>
       <r>   11.1221    0.0000 </r>
      </set>
      <set comment="kpoint 28">
       <r>   -4.6863    1.0000 </r>
       <r>   -4.2199    1.0000 </r>
       <r>   -2.8658    1.0000 </r>
       <r>   -2.8658    1.0000 </r>
       <r>   -0.6308    1.0000 </r>
       <r>   -0.6308    1.0000 </r>
       <r>    0.8983    1.0000 </r>
       <r>    1.4777    1.0000 </r>
       <r>    2.4569    1.0000 </r>
       <r>    2.4569    1.0000 </r>
       <r>    3.8325    1.0000 </r>
       <r>    3.8325    1.0000 </r>
       <r>    3.9184    1.0000 </r>
       <r>    4.3895    1.0000 </r>
       <r>    4.7271    1.0000 </r>
       <r>    4.7643    1.0000 </r>
       <r>    8.2813    0.0000 </r>
       <r>    8.6557    0.0000 </r>
       <r>    8.9561    0.0000 </r>
       <r>    8.9561    0.0000 </r>
       <r>    9.8977    0.0000 </r>
       <r>   10.1144    0.0000 </r>
       <r>   10.1144    0.0000 </r>
       <r>   10.7388    0.0000 </r>
      </set>
      <set comment="kpoint 29">
       <r>   -4.7974    1.0000 </r>
       <r>   -3.4888    1.0000 </r>
       <r>   -3.4888    1.0000 </r>
       <r>   -2.9712    1.0000 </r>
       <r>   -0.6494    1.0000 </r>
       <r>   -0.0869    1.0000 </r>
       <r>   -0.0869    1.0000 </r>
       <r>    1.4515    1.0000 </r>
       <r>    2.5862    1.0000 </r>
       <r>    3.1222    1.0000 </r>
       <r>    3.1222    1.0000 </r>
       <r>    4.1884    1.0000 </r>
       <r>    4.1884    1.0000 </r>
       <r>    4.2455    1.0000 </r>
       <r>    4.8599    1.0000 </r>
       <r>    5.4881    1.0000 </r>
       <r>    8.0492    0.0000 </r>
       <r>    8.3486    0.0000 </r>
       <r>    8.3486    0.0000 </r>
       <r>    8.5702    0.0000 </r>
       <r>    9.7487    0.0000 </r>
       <r>    9.9931    0.0000 </r>
       <r>   10.6014    0.0000 </r>
       <r>   10.6014    0.0000 </r>
      </set>
      <set comment="kpoint 30">
       <r>   -4.4419    1.0000 </r>
       <r>   -3.9999    1.0000 </r>
       <r>   -3.2782    1.0000 </r>
       <r>   -3.0867    1.0000 </r>
       <r>   -0.6543    1.0000 </r>
       <r>   -0.4488    1.0000 </r>
       <r>    0.3487    1.0000 </r>
       <r>    0.8608    1.0000 </r>
       <r>    2.7990    1.0000 </r>
       <r>    3.0051    1.0000 </r>
       <r>    3.8111    1.0000 </r>
       <r>    4.2707    1.0000 </r>
       <r>    4.3378    1.0000 </r>
       <r>    4.3833    1.0000 </r>
       <r>    4.6259    1.0000 </r>
       <r>    5.1569    1.0000 </r>
       <r>    8.5693    0.0000 </r>
       <r>    8.6898    0.0000 </r>
       <r>    8.7981    0.0000 </r>
       <r>    9.2024    0.0000 </r>
       <r>    9.4934    0.0000 </r>
       <r>    9.6073    0.0000 </r>
       <r>    9.9355    0.0000 </r>
       <r>   10.3061    0.0000 </r>
      </set>
      <set comment="kpoint 31">
       <r>   -4.1119    1.0000 </r>
       <r>   -3.7134    1.0000 </r>
       <r>   -3.7134    1.0000 </r>
       <r>   -3.3912    1.0000 </r>
       <r>   -0.4756    1.0000 </r>
       <r>   -0.1258    1.0000 </r>
       <r>   -0.1258    1.0000 </r>
       <r>    0.3175    1.0000 </r>
       <r>    3.1494    1.0000 </r>
       <r>    3.5024    1.0000 </r>
       <r>    3.5024    1.0000 </r>
       <r>    3.9585    1.0000 </r>
       <r>    4.7211    1.0000 </r>
       <r>    4.8028    1.0000 </r>
       <r>    4.8028    1.0000 </r>
       <r>    5.1792    1.0000 </r>
       <r>    8.5728    0.0000 </r>
       <r>    8.8171    0.0000 </r>
       <r>    8.9997    0.0000 </r>
       <r>    8.9997    0.0000 </r>
       <r>    9.5870    0.0000 </r>
       <r>    9.5870    0.0000 </r>
       <r>    9.9459    0.0000 </r>
       <r>   10.0067    0.0000 </r>
      </set>
      <set comment="kpoint 32">
       <r>   -4.5514    1.0000 </r>
       <r>   -3.3816    1.0000 </r>
       <r>   -3.3816    1.0000 </r>
       <r>   -3.3816    1.0000 </r>
       <r>   -0.4934    1.0000 </r>
       <r>   -0.4934    1.0000 </r>
       <r>   -0.4934    1.0000 </r>
       <r>    0.8143    1.0000 </r>
       <r>    3.4170    1.0000 </r>
       <r>    3.4170    1.0000 </r>
       <r>    3.4170    1.0000 </r>
       <r>    4.4360    1.0000 </r>
       <r>    4.4360    1.0000 </r>
       <r>    4.4360    1.0000 </r>
       <r>    5.2478    1.0000 </r>
       <r>    5.2478    1.0000 </r>
       <r>    8.2017    0.0000 </r>
       <r>    8.3224    0.0000 </r>
       <r>    8.3224    0.0000 </r>
       <r>    8.3224    0.0000 </r>
       <r>    9.7953    0.0000 </r>
       <r>    9.7953    0.0000 </r>
       <r>   10.5180    0.0000 </r>
       <r>   10.5180    0.0000 </r>
      </set>
      <set comment="kpoint 33">
       <r>   -4.2193    1.0000 </r>
       <r>   -3.8183    1.0000 </r>
       <r>   -3.3017    1.0000 </r>
       <r>   -3.3017    1.0000 </r>
       <r>   -0.7360    1.0000 </r>
       <r>   -0.7360    1.0000 </r>
       <r>   -0.1810    1.0000 </r>
       <r>    0.2621    1.0000 </r>
       <r>    3.5832    1.0000 </r>
       <r>    3.5832    1.0000 </r>
       <r>    4.2752    1.0000 </r>
       <r>    4.5562    1.0000 </r>
       <r>    4.5562    1.0000 </r>
       <r>    4.6837    1.0000 </r>
       <r>    4.9656    1.0000 </r>
       <r>    4.9916    1.0000 </r>
       <r>    8.3831    0.0000 </r>
       <r>    8.5607    0.0000 </r>
       <r>    8.7519    0.0000 </r>
       <r>    8.7519    0.0000 </r>
       <r>    9.5645    0.0000 </r>
       <r>    9.6598    0.0000 </r>
       <r>    9.6598    0.0000 </r>
       <r>    9.7385    0.0000 </r>
      </set>
      <set comment="kpoint 34">
       <r>   -3.9295    1.0000 </r>
       <r>   -3.6050    1.0000 </r>
       <r>   -3.6050    1.0000 </r>
       <r>   -3.4134    1.0000 </r>
       <r>   -0.7862    1.0000 </r>
       <r>   -0.5829    1.0000 </r>
       <r>   -0.5829    1.0000 </r>
       <r>   -0.2336    1.0000 </r>
       <r>    4.0022    1.0000 </r>
       <r>    4.2607    1.0000 </r>
       <r>    4.2607    1.0000 </r>
       <r>    4.6998    1.0000 </r>
       <r>    4.8332    1.0000 </r>
       <r>    4.8709    1.0000 </r>
       <r>    4.8709    1.0000 </r>
       <r>    5.1430    1.0000 </r>
       <r>    8.3193    0.0000 </r>
       <r>    8.5963    0.0000 </r>
       <r>    8.6362    0.0000 </r>
       <r>    8.6362    0.0000 </r>
       <r>    9.4707    0.0000 </r>
       <r>    9.4707    0.0000 </r>
       <r>    9.7157    0.0000 </r>
       <r>    9.7285    0.0000 </r>
      </set>
      <set comment="kpoint 35">
       <r>   -3.7155    1.0000 </r>
       <r>   -3.5241    1.0000 </r>
       <r>   -3.5241    1.0000 </r>
       <r>   -3.5241    1.0000 </r>
       <r>   -0.8471    1.0000 </r>
       <r>   -0.8471    1.0000 </r>
       <r>   -0.8471    1.0000 </r>
       <r>   -0.6444    1.0000 </r>
       <r>    4.7509    1.0000 </r>
       <r>    4.7509    1.0000 </r>
       <r>    4.7509    1.0000 </r>
       <r>    4.9581    1.0000 </r>
       <r>    4.9581    1.0000 </r>
       <r>    4.9581    1.0000 </r>
       <r>    5.0683    1.0000 </r>
       <r>    5.0683    1.0000 </r>
       <r>    8.0036    0.0000 </r>
       <r>    8.2541    0.0000 </r>
       <r>    8.2541    0.0000 </r>
       <r>    8.2541    0.0000 </r>
       <r>    9.5358    0.0000 </r>
       <r>    9.5358    0.0000 </r>
       <r>    9.5368    0.0000 </r>
       <r>    9.6275    0.0000 </r>
      </set>
     </set>
    </set>
   </array>
  </eigenvalues>
  <separator name="orbital magnetization" >
   <v name="MAGDIPOLOUT">      0.00000000      0.00000000      0.00000000</v>
  </separator>
  <dos>
   <i name="efermi">      6.31575000 </i>
   <total>
    <array>
     <dimension dim="1">gridpoints</dimension>
     <dimension dim="2">spin</dimension>
     <field>energy</field>
     <field>total</field>
     <field>integrated</field>
     <set>
      <set comment="spin 1">
       <r>    -6.9858     0.0000     0.0000 </r>
       <r>    -6.9221     0.0000     0.0000 </r>
       <r>    -6.8584     0.0000     0.0000 </r>
       <r>    -6.7947     0.0000     0.0000 </r>
       <r>    -6.7310     0.0000     0.0000 </r>
       <r>    -6.6673     0.0000     0.0000 </r>
       <r>    -6.6036     0.0000     0.0000 </r>
       <r>    -6.5399     0.0000     0.0000 </r>
       <r>    -6.4762     0.0000     0.0000 </r>
       <r>    -6.4125     0.0000     0.0000 </r>
       <r>    -6.3488     0.0000     0.0000 </r>
       <r>    -6.2851     0.0000     0.0000 </r>
       <r>    -6.2214     0.0002     0.0000 </r>
       <r>    -6.1577     0.0010     0.0001 </r>
       <r>    -6.0941    -0.0015     0.0000 </r>
       <r>    -6.0304    -0.0103    -0.0007 </r>
       <r>    -5.9667     0.0508     0.0026 </r>
       <r>    -5.9030     0.2978     0.0215 </r>
       <r>    -5.8393     0.4734     0.0517 </r>
       <r>    -5.7756     0.3822     0.0760 </r>
       <r>    -5.7119     0.7018     0.1207 </r>
       <r>    -5.6482     1.0747     0.1892 </r>
       <r>    -5.5845     0.5500     0.2242 </r>
       <r>    -5.5208     0.5053     0.2564 </r>
       <r>    -5.4571     1.1920     0.3323 </r>
       <r>    -5.3934     1.3057     0.4155 </r>
       <r>    -5.3297     0.8789     0.4715 </r>
       <r>    -5.2660     0.9841     0.5341 </r>
       <r>    -5.2024     1.6293     0.6379 </r>
       <r>    -5.1387     0.8029     0.6891 </r>
       <r>    -5.0750     0.6391     0.7298 </r>
       <r>    -5.0113     1.8570     0.8480 </r>
       <r>    -4.9476     1.7678     0.9606 </r>
       <r>    -4.8839     1.3673     1.0477 </r>
       <r>    -4.8202     1.9735     1.1734 </r>
       <r>    -4.7565     1.3714     1.2608 </r>
       <r>    -4.6928     0.4588     1.2900 </r>
       <r>    -4.6291     1.2401     1.3690 </r>
       <r>    -4.5654     2.4791     1.5269 </r>
       <r>    -4.5017     2.1782     1.6656 </r>
       <r>    -4.4380     1.8221     1.7817 </r>
       <r>    -4.3743     2.2294     1.9237 </r>
       <r>    -4.3107     1.4852     2.0183 </r>
       <r>    -4.2470     1.3116     2.1018 </r>
       <r>    -4.1833     2.3251     2.2499 </r>
       <r>    -4.1196     2.5427     2.4118 </r>
       <r>    -4.0559     1.7254     2.5217 </r>
       <r>    -3.9922     1.6452     2.6265 </r>
       <r>    -3.9285     2.2470     2.7697 </r>
       <r>    -3.8648     1.8081     2.8848 </r>
       <r>    -3.8011     3.5342     3.1099 </r>
       <r>    -3.7374     3.8868     3.3575 </r>
       <r>    -3.6737     2.1211     3.4926 </r>
       <r>    -3.6100     2.4644     3.6495 </r>
       <r>    -3.5463     3.2888     3.8590 </r>
       <r>    -3.4826     2.4423     4.0146 </r>
       <r>    -3.4190     2.2826     4.1600 </r>
       <r>    -3.3553     2.9519     4.3480 </r>
       <r>    -3.2916     4.8953     4.6598 </r>
       <r>    -3.2279     4.3958     4.9398 </r>
       <r>    -3.1642     1.5422     5.0380 </r>
       <r>    -3.1005     2.2321     5.1801 </r>
       <r>    -3.0368     2.4532     5.3364 </r>
       <r>    -2.9731     4.2699     5.6084 </r>
       <r>    -2.9094     5.2656     5.9437 </r>
       <r>    -2.8457     2.0350     6.0734 </r>
       <r>    -2.7820     0.9586     6.1344 </r>
       <r>    -2.7183     1.9291     6.2573 </r>
       <r>    -2.6546     1.3808     6.3452 </r>
       <r>    -2.5909     0.9266     6.4042 </r>
       <r>    -2.5273     1.8651     6.5230 </r>
       <r>    -2.4636     3.1554     6.7240 </r>
       <r>    -2.3999     4.3403     7.0005 </r>
       <r>    -2.3362     2.7231     7.1739 </r>
       <r>    -2.2725     2.1754     7.3125 </r>
       <r>    -2.2088     2.4697     7.4698 </r>
       <r>    -2.1451     1.2542     7.5497 </r>
       <r>    -2.0814     0.5194     7.5827 </r>
       <r>    -2.0177     0.3560     7.6054 </r>
       <r>    -1.9540     0.8119     7.6571 </r>
       <r>    -1.8903     0.7688     7.7061 </r>
       <r>    -1.8266     0.7354     7.7529 </r>
       <r>    -1.7629     0.9142     7.8112 </r>
       <r>    -1.6992     0.8374     7.8645 </r>
       <r>    -1.6356     1.0855     7.9336 </r>
       <r>    -1.5719     1.4362     8.0251 </r>
       <r>    -1.5082     1.5237     8.1222 </r>
       <r>    -1.4445     1.0891     8.1915 </r>
       <r>    -1.3808     0.6083     8.2303 </r>
       <r>    -1.3171     0.1380     8.2391 </r>
       <r>    -1.2534     0.4757     8.2694 </r>
       <r>    -1.1897     0.8021     8.3205 </r>
       <r>    -1.1260     0.3541     8.3430 </r>
       <r>    -1.0623     0.4807     8.3736 </r>
       <r>    -0.9986     0.4770     8.4040 </r>
       <r>    -0.9349     0.5981     8.4421 </r>
       <r>    -0.8712     1.7623     8.5543 </r>
       <r>    -0.8075     5.7328     8.9195 </r>
       <r>    -0.7439     8.2299     9.4437 </r>
       <r>    -0.6802     6.0739     9.8305 </r>
       <r>    -0.6165     6.0239    10.2142 </r>
       <r>    -0.5528     3.2996    10.4244 </r>
       <r>    -0.4891     2.6070    10.5904 </r>
       <r>    -0.4254     5.3408    10.9306 </r>
       <r>    -0.3617     3.2720    11.1390 </r>
       <r>    -0.2980     0.5011    11.1709 </r>
       <r>    -0.2343     1.8452    11.2884 </r>
       <r>    -0.1706     3.6274    11.5195 </r>
       <r>    -0.1069     3.5052    11.7427 </r>
       <r>    -0.0432     4.1160    12.0049 </r>
       <r>     0.0205     2.9282    12.1914 </r>
       <r>     0.0842     1.1317    12.2635 </r>
       <r>     0.1478     1.3707    12.3508 </r>
       <r>     0.2115     2.0152    12.4791 </r>
       <r>     0.2752     1.5995    12.5810 </r>
       <r>     0.3389     3.2186    12.7860 </r>
       <r>     0.4026     4.1855    13.0526 </r>
       <r>     0.4663     1.4108    13.1425 </r>
       <r>     0.5300     0.0567    13.1461 </r>
       <r>     0.5937     0.4952    13.1776 </r>
       <r>     0.6574     0.3548    13.2002 </r>
       <r>     0.7211     1.1678    13.2746 </r>
       <r>     0.7848     1.5389    13.3726 </r>
       <r>     0.8485     1.6127    13.4753 </r>
       <r>     0.9122     3.7685    13.7154 </r>
       <r>     0.9759     2.6917    13.8868 </r>
       <r>     1.0395     0.4956    13.9184 </r>
       <r>     1.1032     0.4184    13.9450 </r>
       <r>     1.1669     0.7644    13.9937 </r>
       <r>     1.2306     1.1918    14.0696 </r>
       <r>     1.2943     0.7687    14.1186 </r>
       <r>     1.3580    -0.0490    14.1154 </r>
       <r>     1.4217     1.1471    14.1885 </r>
       <r>     1.4854     3.3496    14.4019 </r>
       <r>     1.5491     1.9676    14.5272 </r>
       <r>     1.6128    -0.0647    14.5231 </r>
       <r>     1.6765     0.6242    14.5628 </r>
       <r>     1.7402     1.8726    14.6821 </r>
       <r>     1.8039     1.4339    14.7734 </r>
       <r>     1.8676     1.8121    14.8888 </r>
       <r>     1.9312     4.7156    15.1892 </r>
       <r>     1.9949     5.4380    15.5355 </r>
       <r>     2.0586     4.7127    15.8357 </r>
       <r>     2.1223     7.3002    16.3007 </r>
       <r>     2.1860     4.7776    16.6050 </r>
       <r>     2.2497     0.4889    16.6361 </r>
       <r>     2.3134     1.4274    16.7270 </r>
       <r>     2.3771     5.2708    17.0627 </r>
       <r>     2.4408     7.7175    17.5543 </r>
       <r>     2.5045     4.8378    17.8624 </r>
       <r>     2.5682     1.6625    17.9683 </r>
       <r>     2.6319     1.3096    18.0517 </r>
       <r>     2.6956     2.3815    18.2034 </r>
       <r>     2.7593     6.4320    18.6131 </r>
       <r>     2.8229     8.4948    19.1541 </r>
       <r>     2.8866     3.2209    19.3593 </r>
       <r>     2.9503     0.8708    19.4148 </r>
       <r>     3.0140     4.0112    19.6702 </r>
       <r>     3.0777     4.7496    19.9728 </r>
       <r>     3.1414     5.7352    20.3381 </r>
       <r>     3.2051     6.8304    20.7731 </r>
       <r>     3.2688     4.6028    21.0663 </r>
       <r>     3.3325     3.6477    21.2986 </r>
       <r>     3.3962     4.9057    21.6111 </r>
       <r>     3.4599     6.9162    22.0516 </r>
       <r>     3.5236     6.7977    22.4845 </r>
       <r>     3.5873     6.2292    22.8813 </r>
       <r>     3.6510     5.4350    23.2275 </r>
       <r>     3.7146     3.8596    23.4733 </r>
       <r>     3.7783     4.3140    23.7481 </r>
       <r>     3.8420     6.3875    24.1549 </r>
       <r>     3.9057     8.0582    24.6682 </r>
       <r>     3.9694     5.6567    25.0284 </r>
       <r>     4.0331     2.4739    25.1860 </r>
       <r>     4.0968     2.7371    25.3603 </r>
       <r>     4.1605     5.5682    25.7150 </r>
       <r>     4.2242     7.8419    26.2145 </r>
       <r>     4.2879     6.7280    26.6430 </r>
       <r>     4.3516     5.4548    26.9904 </r>
       <r>     4.4153     4.8611    27.3000 </r>
       <r>     4.4790     1.8245    27.4163 </r>
       <r>     4.5427     1.4102    27.5061 </r>
       <r>     4.6063     4.6200    27.8003 </r>
       <r>     4.6700     6.1264    28.1905 </r>
       <r>     4.7337     7.1784    28.6478 </r>
       <r>     4.7974     6.8017    29.0810 </r>
       <r>     4.8611     4.3145    29.3558 </r>
       <r>     4.9248     2.5697    29.5195 </r>
       <r>     4.9885     2.9390    29.7066 </r>
       <r>     5.0522     3.0409    29.9003 </r>
       <r>     5.1159     2.4287    30.0550 </r>
       <r>     5.1796     3.9970    30.3096 </r>
       <r>     5.2433     5.1757    30.6393 </r>
       <r>     5.3070     3.5726    30.8668 </r>
       <r>     5.3707     2.0517    30.9975 </r>
       <r>     5.4344     1.4291    31.0885 </r>
       <r>     5.4980     0.6354    31.1290 </r>
       <r>     5.5617     1.4520    31.2215 </r>
       <r>     5.6254     2.9381    31.4086 </r>
       <r>     5.6891     2.1234    31.5438 </r>
       <r>     5.7528     0.8270    31.5965 </r>
       <r>     5.8165     0.5210    31.6297 </r>
       <r>     5.8802     1.0880    31.6990 </r>
       <r>     5.9439     1.4478    31.7912 </r>
       <r>     6.0076     1.2062    31.8680 </r>
       <r>     6.0713     1.0212    31.9331 </r>
       <r>     6.1350     0.4417    31.9612 </r>
       <r>     6.1987     0.0630    31.9652 </r>
       <r>     6.2624     0.3443    31.9871 </r>
       <r>     6.3261     0.2152    32.0008 </r>
       <r>     6.3897    -0.0042    32.0006 </r>
       <r>     6.4534    -0.0113    31.9999 </r>
       <r>     6.5171     0.0021    32.0000 </r>
       <r>     6.5808     0.0025    32.0002 </r>
       <r>     6.6445    -0.0103    31.9995 </r>
       <r>     6.7082    -0.0088    31.9989 </r>
       <r>     6.7719     0.1842    32.0107 </r>
       <r>     6.8356     0.2990    32.0297 </r>
       <r>     6.8993     0.1966    32.0422 </r>
       <r>     6.9630     0.2775    32.0599 </r>
       <r>     7.0267     0.6830    32.1034 </r>
       <r>     7.0904     1.3810    32.1914 </r>
       <r>     7.1541     1.8207    32.3073 </r>
       <r>     7.2178     1.8670    32.4263 </r>
       <r>     7.2814     1.2329    32.5048 </r>
       <r>     7.3451     0.8787    32.5607 </r>
       <r>     7.4088     2.0296    32.6900 </r>
       <r>     7.4725     2.9366    32.8771 </r>
       <r>     7.5362     2.0059    33.0048 </r>
       <r>     7.5999     1.7485    33.1162 </r>
       <r>     7.6636     1.8505    33.2341 </r>
       <r>     7.7273     0.9146    33.2923 </r>
       <r>     7.7910     0.5677    33.3285 </r>
       <r>     7.8547     3.5896    33.5571 </r>
       <r>     7.9184     6.4375    33.9671 </r>
       <r>     7.9821     3.8356    34.2114 </r>
       <r>     8.0458     2.6892    34.3827 </r>
       <r>     8.1095     2.7737    34.5594 </r>
       <r>     8.1732     1.0251    34.6247 </r>
       <r>     8.2368     2.4508    34.7808 </r>
       <r>     8.3005     6.1484    35.1724 </r>
       <r>     8.3642     6.9416    35.6145 </r>
       <r>     8.4279     4.8173    35.9213 </r>
       <r>     8.4916     3.5708    36.1488 </r>
       <r>     8.5553     4.3775    36.4276 </r>
       <r>     8.6190     6.1093    36.8167 </r>
       <r>     8.6827     6.2851    37.2170 </r>
       <r>     8.7464     6.4383    37.6271 </r>
       <r>     8.8101     6.5362    38.0434 </r>
       <r>     8.8738     3.6743    38.2774 </r>
       <r>     8.9375     3.9633    38.5298 </r>
       <r>     9.0012     8.0034    39.0396 </r>
       <r>     9.0649     7.6462    39.5266 </r>
       <r>     9.1285     4.6726    39.8242 </r>
       <r>     9.1922     4.4931    40.1104 </r>
       <r>     9.2559     3.3264    40.3223 </r>
       <r>     9.3196     2.5489    40.4846 </r>
       <r>     9.3833     4.1346    40.7480 </r>
       <r>     9.4470     5.3451    41.0884 </r>
       <r>     9.5107     5.7720    41.4560 </r>
       <r>     9.5744     8.5627    42.0014 </r>
       <r>     9.6381     8.9025    42.5685 </r>
       <r>     9.7018     5.6285    42.9269 </r>
       <r>     9.7655     4.9287    43.2409 </r>
       <r>     9.8292     4.3587    43.5185 </r>
       <r>     9.8929     3.9537    43.7703 </r>
       <r>     9.9566     6.1429    44.1616 </r>
       <r>    10.0202     7.8827    44.6637 </r>
       <r>    10.0839     4.4305    44.9458 </r>
       <r>    10.1476     4.9724    45.2625 </r>
       <r>    10.2113     7.8029    45.7595 </r>
       <r>    10.2750     6.2168    46.1555 </r>
       <r>    10.3387     3.7967    46.3973 </r>
       <r>    10.4024     3.8920    46.6452 </r>
       <r>    10.4661     2.8554    46.8271 </r>
       <r>    10.5298     1.7249    46.9370 </r>
       <r>    10.5935     2.4985    47.0961 </r>
       <r>    10.6572     3.5463    47.3220 </r>
       <r>    10.7209     2.8697    47.5047 </r>
       <r>    10.7846     1.1960    47.5809 </r>
       <r>    10.8483     1.9273    47.7037 </r>
       <r>    10.9119     1.8863    47.8238 </r>
       <r>    10.9756     0.3666    47.8472 </r>
       <r>    11.0393     0.7111    47.8925 </r>
       <r>    11.1030     1.0084    47.9567 </r>
       <r>    11.1667     0.6140    47.9958 </r>
       <r>    11.2304     0.1072    48.0026 </r>
       <r>    11.2941    -0.0438    47.9998 </r>
       <r>    11.3578    -0.0007    47.9998 </r>
       <r>    11.4215     0.0030    48.0000 </r>
       <r>    11.4852     0.0003    48.0000 </r>
       <r>    11.5489     0.0000    48.0000 </r>
       <r>    11.6126     0.0000    48.0000 </r>
       <r>    11.6763     0.0000    48.0000 </r>
       <r>    11.7400     0.0000    48.0000 </r>
       <r>    11.8036     0.0000    48.0000 </r>
       <r>    11.8673     0.0000    48.0000 </r>
       <r>    11.9310     0.0000    48.0000 </r>
       <r>    11.9947     0.0000    48.0000 </r>
       <r>    12.0584     0.0000    48.0000 </r>
       <r>    12.1221     0.0000    48.0000 </r>
      </set>
     </set>
    </array>
   </total>
  </dos>
 </calculation>
 <structure name="finalpos" >
  <crystal>
   <varray name="basis" >
    <v>       5.35138161       0.00000000       0.00000000 </v>
    <v>       0.00000000       5.35138161       0.00000000 </v>
    <v>       0.00000000       0.00000000       5.35138161 </v>
   </varray>
   <i name="volume">    153.24904094 </i>
   <varray name="rec_basis" >
    <v>       0.18686763       0.00000000       0.00000000 </v>
    <v>       0.00000000       0.18686763       0.00000000 </v>
    <v>       0.00000000       0.00000000       0.18686763 </v>
   </varray>
  </crystal>
  <varray name="positions" >
   <v>       0.00000000       0.00000000       0.00000000 </v>
   <v>       0.25000000       0.25000000       0.25000000 </v>
   <v>       0.50000000       0.50000000       0.00000000 </v>
   <v>       0.75000000       0.75000000       0.25000000 </v>
   <v>       0.50000000       0.00000000       0.50000000 </v>
   <v>       0.75000000       0.25000000       0.75000000 </v>
   <v>       0.00000000       0.50000000       0.50000000 </v>
   <v>       0.25000000       0.75000000       0.75000000 </v>
  </varray>
 </structure>
</modeling>
