<?xml version="1.0" encoding="ISO-8859-1"?>
<modeling>
 <generator>
  <i name="program" type="string">vasp </i>
  <i name="version" type="string">5.4.1  </i>
  <i name="subversion" type="string">24Jun15 (build Jul  8 2015 13:29:37) complex                          parallel </i>
  <i name="platform" type="string">FX10FRT </i>
  <i name="date" type="string">2016 02 20 </i>
  <i name="time" type="string">07:10:12 </i>
 </generator>
 <incar>
  <i type="string" name="PREC">accurate</i>
  <i type="string" name="ALGO"> Normal</i>
  <i type="int" name="ISPIN">     1</i>
  <i type="int" name="IBRION">    -1</i>
  <i name="EDIFF">      0.00010000</i>
  <i type="int" name="NSW">     0</i>
  <i type="int" name="ISIF">     2</i>
  <i name="ENCUT">    400.00000000</i>
  <i type="int" name="ISMEAR">     2</i>
  <i name="SIGMA">      0.10000000</i>
  <i type="int" name="NWRITE">     1</i>
  <v type="int" name="KPOINT_BSE">    -1     0     0     0</v>
 </incar>
 <kpoints>
  <generation param="Monkhorst-Pack">
   <v type="int" name="divisions">       9        9        9 </v>
   <v name="usershift">      0.00000000       0.00000000       0.00000000 </v>
   <v name="genvec1">      0.11111111       0.00000000       0.00000000 </v>
   <v name="genvec2">      0.00000000       0.11111111       0.00000000 </v>
   <v name="genvec3">      0.00000000       0.00000000       0.11111111 </v>
   <v name="shift">      0.00000000       0.00000000       0.00000000 </v>
  </generation>
  <varray name="kpointlist" >
   <v>       0.00000000       0.00000000       0.00000000 </v>
   <v>       0.11111111       0.00000000       0.00000000 </v>
   <v>       0.22222222       0.00000000       0.00000000 </v>
   <v>       0.33333333       0.00000000       0.00000000 </v>
   <v>       0.44444444       0.00000000       0.00000000 </v>
   <v>       0.11111111       0.11111111       0.00000000 </v>
   <v>       0.22222222       0.11111111       0.00000000 </v>
   <v>       0.33333333       0.11111111       0.00000000 </v>
   <v>       0.44444444       0.11111111       0.00000000 </v>
   <v>       0.22222222       0.22222222       0.00000000 </v>
   <v>       0.33333333       0.22222222       0.00000000 </v>
   <v>       0.44444444       0.22222222       0.00000000 </v>
   <v>       0.33333333       0.33333333       0.00000000 </v>
   <v>       0.44444444       0.33333333       0.00000000 </v>
   <v>       0.44444444       0.44444444       0.00000000 </v>
   <v>       0.11111111       0.11111111       0.11111111 </v>
   <v>       0.22222222       0.11111111       0.11111111 </v>
   <v>       0.33333333       0.11111111       0.11111111 </v>
   <v>       0.44444444       0.11111111       0.11111111 </v>
   <v>       0.22222222       0.22222222       0.11111111 </v>
   <v>       0.33333333       0.22222222       0.11111111 </v>
   <v>       0.44444444       0.22222222       0.11111111 </v>
   <v>       0.33333333       0.33333333       0.11111111 </v>
   <v>       0.44444444       0.33333333       0.11111111 </v>
   <v>       0.44444444       0.44444444       0.11111111 </v>
   <v>       0.22222222       0.22222222       0.22222222 </v>
   <v>       0.33333333       0.22222222       0.22222222 </v>
   <v>       0.44444444       0.22222222       0.22222222 </v>
   <v>       0.33333333       0.33333333       0.22222222 </v>
   <v>       0.44444444       0.33333333       0.22222222 </v>
   <v>       0.44444444       0.44444444       0.22222222 </v>
   <v>       0.33333333       0.33333333       0.33333333 </v>
   <v>       0.44444444       0.33333333       0.33333333 </v>
   <v>       0.44444444       0.44444444       0.33333333 </v>
   <v>       0.44444444       0.44444444       0.44444444 </v>
  </varray>
  <varray name="weights" >
   <v>       0.00137174 </v>
   <v>       0.00823045 </v>
   <v>       0.00823045 </v>
   <v>       0.00823045 </v>
   <v>       0.00823045 </v>
   <v>       0.01646091 </v>
   <v>       0.03292181 </v>
   <v>       0.03292181 </v>
   <v>       0.03292181 </v>
   <v>       0.01646091 </v>
   <v>       0.03292181 </v>
   <v>       0.03292181 </v>
   <v>       0.01646091 </v>
   <v>       0.03292181 </v>
   <v>       0.01646091 </v>
   <v>       0.01097394 </v>
   <v>       0.03292181 </v>
   <v>       0.03292181 </v>
   <v>       0.03292181 </v>
   <v>       0.03292181 </v>
   <v>       0.06584362 </v>
   <v>       0.06584362 </v>
   <v>       0.03292181 </v>
   <v>       0.06584362 </v>
   <v>       0.03292181 </v>
   <v>       0.01097394 </v>
   <v>       0.03292181 </v>
   <v>       0.03292181 </v>
   <v>       0.03292181 </v>
   <v>       0.06584362 </v>
   <v>       0.03292181 </v>
   <v>       0.01097394 </v>
   <v>       0.03292181 </v>
   <v>       0.03292181 </v>
   <v>       0.01097394 </v>
  </varray>
 </kpoints>
 <parameters>
  <separator name="general" >
   <i type="string" name="SYSTEM">unknown system</i>
   <i type="logical" name="LCOMPAT"> F  </i>
  </separator>
  <separator name="electronic" >
   <i type="string" name="PREC">accura</i>
   <i name="ENMAX">    400.00000000</i>
   <i name="ENAUG">    322.06900000</i>
   <i name="EDIFF">      0.00010000</i>
   <i type="int" name="IALGO">    38</i>
   <i type="int" name="IWAVPR">    10</i>
   <i type="int" name="NBANDS">    24</i>
   <i name="NELECT">     32.00000000</i>
   <i type="int" name="TURBO">     0</i>
   <i type="int" name="IRESTART">     0</i>
   <i type="int" name="NREBOOT">     0</i>
   <i type="int" name="NMIN">     0</i>
   <i name="EREF">      0.00000000</i>
   <separator name="electronic smearing" >
    <i type="int" name="ISMEAR">     2</i>
    <i name="SIGMA">      0.10000000</i>
    <i name="KSPACING">      0.50000000</i>
    <i type="logical" name="KGAMMA"> T  </i>
   </separator>
   <separator name="electronic projectors" >
    <i type="logical" name="LREAL"> F  </i>
    <v name="ROPT">      0.00000000</v>
    <i type="int" name="LMAXPAW">  -100</i>
    <i type="int" name="LMAXMIX">     2</i>
    <i type="logical" name="NLSPLINE"> F  </i>
   </separator>
   <separator name="electronic startup" >
    <i type="int" name="ISTART">     0</i>
    <i type="int" name="ICHARG">     2</i>
    <i type="int" name="INIWAV">     1</i>
   </separator>
   <separator name="electronic spin" >
    <i type="int" name="ISPIN">     1</i>
    <i type="logical" name="LNONCOLLINEAR"> F  </i>
    <v name="MAGMOM">      1.00000000      1.00000000      1.00000000      1.00000000      1.00000000      1.00000000      1.00000000      1.00000000</v>
    <i name="NUPDOWN">     -1.00000000</i>
    <i type="logical" name="LSORBIT"> F  </i>
    <v name="SAXIS">      0.00000000      0.00000000      1.00000000</v>
    <i type="logical" name="LSPIRAL"> F  </i>
    <v name="QSPIRAL">      0.00000000      0.00000000      0.00000000</v>
    <i type="logical" name="LZEROZ"> F  </i>
   </separator>
   <separator name="electronic exchange-correlation" >
    <i type="logical" name="LASPH"> F  </i>
    <i type="logical" name="LMETAGGA"> F  </i>
   </separator>
   <separator name="electronic convergence" >
    <i type="int" name="NELM">    60</i>
    <i type="int" name="NELMDL">    -5</i>
    <i type="int" name="NELMIN">     2</i>
    <i name="ENINI">    400.00000000</i>
    <separator name="electronic convergence detail" >
     <i type="logical" name="LDIAG"> T  </i>
     <i type="logical" name="LSUBROT"> F  </i>
     <i name="WEIMIN">      0.00000000</i>
     <i name="EBREAK">      0.00000104</i>
     <i name="DEPER">      0.30000000</i>
     <i type="int" name="NRMM">     4</i>
     <i name="TIME">      0.40000000</i>
    </separator>
   </separator>
   <separator name="electronic mixer" >
    <i name="AMIX">      0.40000000</i>
    <i name="BMIX">      1.00000000</i>
    <i name="AMIN">      0.10000000</i>
    <i name="AMIX_MAG">      1.60000000</i>
    <i name="BMIX_MAG">      1.00000000</i>
    <separator name="electronic mixer details" >
     <i type="int" name="IMIX">     4</i>
     <i type="logical" name="MIXFIRST"> F  </i>
     <i type="int" name="MAXMIX">   -45</i>
     <i name="WC">    100.00000000</i>
     <i type="int" name="INIMIX">     1</i>
     <i type="int" name="MIXPRE">     1</i>
     <i type="int" name="MREMOVE">     5</i>
    </separator>
   </separator>
   <separator name="electronic dipolcorrection" >
    <i type="logical" name="LDIPOL"> F  </i>
    <i type="logical" name="LMONO"> F  </i>
    <i type="int" name="IDIPOL">     0</i>
    <i name="EPSILON">      1.00000000</i>
    <v name="DIPOL">   -100.00000000   -100.00000000   -100.00000000</v>
    <i name="EFIELD">      0.00000000</i>
   </separator>
  </separator>
  <separator name="grids" >
   <i type="int" name="NGX">    36</i>
   <i type="int" name="NGY">    36</i>
   <i type="int" name="NGZ">    36</i>
   <i type="int" name="NGXF">    72</i>
   <i type="int" name="NGYF">    72</i>
   <i type="int" name="NGZF">    72</i>
   <i type="logical" name="ADDGRID"> F  </i>
  </separator>
  <separator name="ionic" >
   <i type="int" name="NSW">     0</i>
   <i type="int" name="IBRION">    -1</i>
   <i type="int" name="ISIF">     2</i>
   <i name="PSTRESS">      0.00000000</i>
   <i name="EDIFFG">      0.00100000</i>
   <i type="int" name="NFREE">     0</i>
   <i name="POTIM">      0.50000000</i>
   <i name="SMASS">     -3.00000000</i>
   <i name="SCALEE">      1.00000000</i>
  </separator>
  <separator name="ionic md" >
   <i name="TEBEG">      0.00010000</i>
   <i name="TEEND">      0.00010000</i>
   <i type="int" name="NBLOCK">     1</i>
   <i type="int" name="KBLOCK">     1</i>
   <i type="int" name="NPACO">   256</i>
   <i name="APACO">     16.00000000</i>
  </separator>
  <separator name="symmetry" >
   <i type="int" name="ISYM">     2</i>
   <i name="SYMPREC">      0.00001000</i>
  </separator>
  <separator name="dos" >
   <i type="logical" name="LORBIT"> F  </i>
   <v name="RWIGS">     -1.00000000</v>
   <i type="int" name="NEDOS">   301</i>
   <i name="EMIN">     10.00000000</i>
   <i name="EMAX">    -10.00000000</i>
   <i name="EFERMI">      0.00000000</i>
  </separator>
  <separator name="writing" >
   <i type="int" name="NWRITE">     1</i>
   <i type="logical" name="LWAVE"> T  </i>
   <i type="logical" name="LCHARG"> T  </i>
   <i type="logical" name="LPARD"> F  </i>
   <i type="logical" name="LVTOT"> F  </i>
   <i type="logical" name="LVHAR"> F  </i>
   <i type="logical" name="LELF"> F  </i>
   <i type="logical" name="LOPTICS"> F  </i>
   <v name="STM">      0.00000000      0.00000000      0.00000000      0.00000000      0.00000000      0.00000000      0.00000000</v>
  </separator>
  <separator name="performance" >
   <i type="int" name="NPAR">     8</i>
   <i type="int" name="NSIM">     4</i>
   <i type="int" name="NBLK">    -1</i>
   <i type="logical" name="LPLANE"> T  </i>
   <i type="logical" name="LSCALAPACK"> T  </i>
   <i type="logical" name="LSCAAWARE"> F  </i>
   <i type="logical" name="LSCALU"> F  </i>
   <i type="logical" name="LASYNC"> F  </i>
   <i type="logical" name="LORBITALREAL"> F  </i>
  </separator>
  <separator name="miscellaneous" >
   <i type="int" name="IDIOT">     3</i>
   <i type="logical" name="LMUSIC"> F  </i>
   <v name="POMASS">     28.08500000</v>
   <v name="DARWINR">      0.00000000</v>
   <v name="DARWINV">      1.00000000</v>
   <i type="logical" name="LCORR"> T  </i>
  </separator>
  <i type="logical" name="GGA_COMPAT"> T  </i>
  <i type="logical" name="LBERRY"> F  </i>
  <i type="int" name="ICORELEVEL">     0</i>
  <i type="logical" name="LDAU"> F  </i>
  <i type="int" name="I_CONSTRAINED_M">     0</i>
  <separator name="electronic exchange-correlation" >
   <i type="string" name="GGA">--</i>
   <i type="int" name="VOSKOWN">     0</i>
   <i type="logical" name="LHFCALC"> F  </i>
   <i type="string" name="PRECFOCK"></i>
   <i type="logical" name="LSYMGRAD"> F  </i>
   <i type="logical" name="LHFONE"> F  </i>
   <i type="logical" name="LRHFCALC"> F  </i>
   <i type="logical" name="LTHOMAS"> F  </i>
   <i type="logical" name="LMODELHF"> F  </i>
   <i name="ENCUT4O">     -1.00000000</i>
   <i type="int" name="EXXOEP">     0</i>
   <i type="int" name="FOURORBIT">     0</i>
   <i name="AEXX">      0.00000000</i>
   <i name="HFALPHA">      0.00000000</i>
   <i name="MCALPHA">      0.00000000</i>
   <i name="ALDAX">      1.00000000</i>
   <i name="AGGAX">      1.00000000</i>
   <i name="ALDAC">      1.00000000</i>
   <i name="AGGAC">      1.00000000</i>
   <i type="int" name="NKREDX">     1</i>
   <i type="int" name="NKREDY">     1</i>
   <i type="int" name="NKREDZ">     1</i>
   <i type="logical" name="SHIFTRED"> F  </i>
   <i type="logical" name="ODDONLY"> F  </i>
   <i type="logical" name="EVENONLY"> F  </i>
   <i type="int" name="LMAXFOCK">     0</i>
   <i type="int" name="NMAXFOCKAE">     0</i>
   <i type="logical" name="LFOCKAEDFT"> F  </i>
   <i name="HFSCREEN">      0.00000000</i>
   <i name="HFSCREENC">      0.00000000</i>
   <i type="int" name="NBANDSGWLOW">     0</i>
  </separator>
  <separator name="vdW DFT" >
   <i type="logical" name="LUSE_VDW"> F  </i>
   <i name="Zab_VDW">     -0.84910000</i>
   <i name="PARAM1">      0.12340000</i>
   <i name="PARAM2">      1.00000000</i>
   <i name="PARAM3">      0.00000000</i>
  </separator>
  <separator name="model GW" >
   <i type="int" name="MODEL_GW">     0</i>
   <i name="MODEL_EPS0">     13.07790580</i>
   <i name="MODEL_ALPHA">      1.00000000</i>
  </separator>
  <separator name="linear response parameters" >
   <i type="logical" name="LEPSILON"> F  </i>
   <i type="logical" name="LRPA"> F  </i>
   <i type="logical" name="LNABLA"> F  </i>
   <i type="logical" name="LVEL"> F  </i>
   <i type="int" name="KINTER">     0</i>
   <i name="CSHIFT">      0.10000000</i>
   <i name="OMEGAMAX">     -1.00000000</i>
   <i name="DEG_THRESHOLD">      0.00200000</i>
  </separator>
  <separator name="orbital magnetization" >
   <i type="logical" name="NUCIND"> F  </i>
   <v name="MAGPOS">      0.00000000      0.00000000      0.00000000</v>
   <i type="logical" name="LNICSALL"> T  </i>
   <i type="logical" name="ORBITALMAG"> F  </i>
   <i type="logical" name="LMAGBLOCH"> F  </i>
   <i type="logical" name="LCHIMAG"> F  </i>
   <i type="logical" name="LGAUGE"> T  </i>
   <i type="int" name="MAGATOM">     0</i>
   <v name="MAGDIPOL">      0.00000000      0.00000000      0.00000000</v>
   <v name="AVECCONST">      0.00000000      0.00000000      0.00000000</v>
  </separator>
  <separator name="response functions" >
   <i type="logical" name="LADDER"> F  </i>
   <i type="logical" name="LFXC"> F  </i>
   <i type="logical" name="LHARTREE"> T  </i>
   <i type="int" name="IBSE">     0</i>
   <v type="int" name="KPOINT">    -1     0     0     0</v>
   <i type="logical" name="LTCTE"> F  </i>
   <i type="logical" name="LTETE"> F  </i>
   <i type="logical" name="LTRIPLET"> F  </i>
   <i type="logical" name="LFXCEPS"> F  </i>
   <i type="logical" name="LFXHEG"> F  </i>
   <i type="int" name="NATURALO">     0</i>
   <i type="logical" name="L2ORDER"> F  </i>
   <i type="logical" name="LUSEW"> F  </i>
   <i name="ENCUTGW">     -2.00000000</i>
   <i name="ENCUTGWSOFT">     -2.00000000</i>
   <i name="ENCUTLF">     -1.00000000</i>
   <i type="int" name="LMAXMP2">    -1</i>
   <i name="SCISSOR">      0.00000000</i>
   <i type="int" name="NOMEGA">     0</i>
   <i type="int" name="NOMEGAR">     0</i>
   <i type="int" name="NBANDSGW">    -1</i>
   <i type="int" name="NBANDSO">    -1</i>
   <i type="int" name="NBANDSV">    -1</i>
   <i type="int" name="NELM">     1</i>
   <i type="int" name="NELMHF">     1</i>
   <i type="int" name="DIM">     3</i>
   <i type="int" name="ANTIRES">     0</i>
   <i name="OMEGAMAX">    -30.00000000</i>
   <i name="OMEGAMIN">    -30.00000000</i>
   <i name="OMEGATL">   -200.00000000</i>
   <i type="int" name="OMEGAGRID">     0</i>
   <i name="CSHIFT">     -0.10000000</i>
   <i type="logical" name="SELFENERGY"> F  </i>
   <i type="logical" name="LSPECTRAL"> F  </i>
   <i type="logical" name="LSPECTRALGW"> F  </i>
   <i type="logical" name="LSINGLES"> F  </i>
   <i type="logical" name="LFERMIGW"> F  </i>
   <i type="logical" name="ODDONLYGW"> F  </i>
   <i type="logical" name="EVENONLYGW"> F  </i>
   <i type="int" name="NKREDLFX">     1</i>
   <i type="int" name="NKREDLFY">     1</i>
   <i type="int" name="NKREDLFZ">     1</i>
   <i type="int" name="MAXMEM">  1800</i>
   <i type="int" name="TELESCOPE">     0</i>
   <i type="int" name="TAUPAR">     1</i>
   <i type="int" name="OMEGAPAR">    -1</i>
   <i name="LAMBDA">      1.00000000</i>
  </separator>
  <separator name="External order field" >
   <i name="OFIELD_KAPPA">      0.00000000</i>
   <v name="OFIELD_K">      0.00000000      0.00000000      0.00000000</v>
   <i name="OFIELD_Q6_NEAR">      0.00000000</i>
   <i name="OFIELD_Q6_FAR">      0.00000000</i>
   <i name="OFIELD_A">      0.00000000</i>
  </separator>
 </parameters>
 <atominfo>
  <atoms>       8 </atoms>
  <types>       1 </types>
  <array name="atoms" >
   <dimension dim="1">ion</dimension>
   <field type="string">element</field>
   <field type="int">atomtype</field>
   <set>
    <rc><c>Si</c><c>   1</c></rc>
    <rc><c>Si</c><c>   1</c></rc>
    <rc><c>Si</c><c>   1</c></rc>
    <rc><c>Si</c><c>   1</c></rc>
    <rc><c>Si</c><c>   1</c></rc>
    <rc><c>Si</c><c>   1</c></rc>
    <rc><c>Si</c><c>   1</c></rc>
    <rc><c>Si</c><c>   1</c></rc>
   </set>
  </array>
  <array name="atomtypes" >
   <dimension dim="1">type</dimension>
   <field type="int">atomspertype</field>
   <field type="string">element</field>
   <field>mass</field>
   <field>valence</field>
   <field type="string">pseudopotential</field>
   <set>
    <rc><c>   8</c><c>Si</c><c>     28.08500000</c><c>      4.00000000</c><c>  PAW_PBE Si 05Jan2001                  </c></rc>
   </set>
  </array>
 </atominfo>
 <structure name="initialpos" >
  <crystal>
   <varray name="basis" >
    <v>       5.58674669       0.00000000       0.00000000 </v>
    <v>       0.00000000       5.58674669       0.00000000 </v>
    <v>       0.00000000       0.00000000       5.58674669 </v>
   </varray>
   <i name="volume">    174.37207729 </i>
   <varray name="rec_basis" >
    <v>       0.17899505       0.00000000       0.00000000 </v>
    <v>       0.00000000       0.17899505       0.00000000 </v>
    <v>       0.00000000       0.00000000       0.17899505 </v>
   </varray>
  </crystal>
  <varray name="positions" >
   <v>       0.00000000       0.00000000       0.00000000 </v>
   <v>       0.25000000       0.25000000       0.25000000 </v>
   <v>       0.50000000       0.50000000       0.00000000 </v>
   <v>       0.75000000       0.75000000       0.25000000 </v>
   <v>       0.50000000       0.00000000       0.50000000 </v>
   <v>       0.75000000       0.25000000       0.75000000 </v>
   <v>       0.00000000       0.50000000       0.50000000 </v>
   <v>       0.25000000       0.75000000       0.75000000 </v>
  </varray>
 </structure>
 <calculation>
  <scstep>
   <time name="dav">    0.88    0.93</time>
   <time name="total">    0.95    1.01</time>
   <energy>
    <i name="alphaZ">     12.35542069 </i>
    <i name="ewald">   -888.60301249 </i>
    <i name="hartreedc">    -49.27869197 </i>
    <i name="XCdc">    -75.71527346 </i>
    <i name="pawpsdc">    704.99039692 </i>
    <i name="pawaedc">   -564.24414232 </i>
    <i name="eentropy">     -0.00162830 </i>
    <i name="bandstr">     91.86807482 </i>
    <i name="atom">    824.52596983 </i>
    <i name="e_fr_energy">     55.89711371 </i>
    <i name="e_wo_entrp">     55.89874201 </i>
    <i name="e_0_energy">     55.89752078 </i>
   </energy>
  </scstep>
  <scstep>
   <time name="dav">    1.04    1.05</time>
   <time name="total">    1.05    1.08</time>
   <energy>
    <i name="e_fr_energy">    -39.50398999 </i>
    <i name="e_wo_entrp">    -39.50415657 </i>
    <i name="e_0_energy">    -39.50403164 </i>
   </energy>
  </scstep>
  <scstep>
   <time name="dav">    1.01    1.03</time>
   <time name="total">    1.03    1.05</time>
   <energy>
    <i name="e_fr_energy">    -43.68891199 </i>
    <i name="e_wo_entrp">    -43.68898167 </i>
    <i name="e_0_energy">    -43.68892941 </i>
   </energy>
  </scstep>
  <scstep>
   <time name="dav">    0.99    1.00</time>
   <time name="total">    1.01    1.02</time>
   <energy>
    <i name="e_fr_energy">    -43.75930708 </i>
    <i name="e_wo_entrp">    -43.75938006 </i>
    <i name="e_0_energy">    -43.75932533 </i>
   </energy>
  </scstep>
  <scstep>
   <time name="dav">    1.04    1.04</time>
   <time name="total">    1.12    1.14</time>
   <energy>
    <i name="e_fr_energy">    -43.76112480 </i>
    <i name="e_wo_entrp">    -43.76119815 </i>
    <i name="e_0_energy">    -43.76114314 </i>
   </energy>
  </scstep>
  <scstep>
   <time name="dav">    0.97    0.98</time>
   <time name="total">    1.08    1.09</time>
   <energy>
    <i name="e_fr_energy">    -43.39492257 </i>
    <i name="e_wo_entrp">    -43.39500167 </i>
    <i name="e_0_energy">    -43.39494234 </i>
   </energy>
  </scstep>
  <scstep>
   <time name="dav">    0.96    0.97</time>
   <time name="total">    1.07    1.08</time>
   <energy>
    <i name="e_fr_energy">    -43.21606587 </i>
    <i name="e_wo_entrp">    -43.21615552 </i>
    <i name="e_0_energy">    -43.21608828 </i>
   </energy>
  </scstep>
  <scstep>
   <time name="dav">    0.97    0.98</time>
   <time name="total">    1.07    1.09</time>
   <energy>
    <i name="e_fr_energy">    -43.22116916 </i>
    <i name="e_wo_entrp">    -43.22125868 </i>
    <i name="e_0_energy">    -43.22119154 </i>
   </energy>
  </scstep>
  <scstep>
   <time name="dav">    1.03    1.03</time>
   <time name="total">    1.14    1.14</time>
   <energy>
    <i name="e_fr_energy">    -43.22203033 </i>
    <i name="e_wo_entrp">    -43.22212028 </i>
    <i name="e_0_energy">    -43.22205282 </i>
   </energy>
  </scstep>
  <scstep>
   <time name="dav">    0.96    0.96</time>
   <time name="total">    1.05    1.07</time>
   <energy>
    <i name="e_fr_energy">    -43.22224440 </i>
    <i name="e_wo_entrp">    -43.22233448 </i>
    <i name="e_0_energy">    -43.22226692 </i>
   </energy>
  </scstep>
  <scstep>
   <time name="dav">    0.74    0.74</time>
   <time name="total">    0.78    0.79</time>
   <energy>
    <i name="alphaZ">     12.35542069 </i>
    <i name="ewald">   -888.60301249 </i>
    <i name="hartreedc">    -63.78486965 </i>
    <i name="XCdc">    -73.38747378 </i>
    <i name="pawpsdc">   2875.17456892 </i>
    <i name="pawaedc">  -2735.04465829 </i>
    <i name="eentropy">      0.00009008 </i>
    <i name="bandstr">      5.54172009 </i>
    <i name="atom">    824.52596983 </i>
    <i name="e_fr_energy">    -43.22224460 </i>
    <i name="e_wo_entrp">    -43.22233468 </i>
    <i name="e_0_energy">    -43.22226712 </i>
   </energy>
  </scstep>
  <structure>
   <crystal>
    <varray name="basis" >
     <v>       5.58674669       0.00000000       0.00000000 </v>
     <v>       0.00000000       5.58674669       0.00000000 </v>
     <v>       0.00000000       0.00000000       5.58674669 </v>
    </varray>
    <i name="volume">    174.37207729 </i>
    <varray name="rec_basis" >
     <v>       0.17899505       0.00000000       0.00000000 </v>
     <v>       0.00000000       0.17899505       0.00000000 </v>
     <v>       0.00000000       0.00000000       0.17899505 </v>
    </varray>
   </crystal>
   <varray name="positions" >
    <v>       0.00000000       0.00000000       0.00000000 </v>
    <v>       0.25000000       0.25000000       0.25000000 </v>
    <v>       0.50000000       0.50000000       0.00000000 </v>
    <v>       0.75000000       0.75000000       0.25000000 </v>
    <v>       0.50000000       0.00000000       0.50000000 </v>
    <v>       0.75000000       0.25000000       0.75000000 </v>
    <v>       0.00000000       0.50000000       0.50000000 </v>
    <v>       0.25000000       0.75000000       0.75000000 </v>
   </varray>
  </structure>
  <varray name="forces" >
   <v>       0.00000000       0.00000000       0.00000000 </v>
   <v>       0.00000000       0.00000000       0.00000000 </v>
   <v>       0.00000000       0.00000000       0.00000000 </v>
   <v>       0.00000000       0.00000000       0.00000000 </v>
   <v>       0.00000000       0.00000000       0.00000000 </v>
   <v>       0.00000000       0.00000000       0.00000000 </v>
   <v>       0.00000000       0.00000000       0.00000000 </v>
   <v>       0.00000000       0.00000000       0.00000000 </v>
  </varray>
  <varray name="stress" >
   <v>     -49.53162675       0.00000000       0.00000000 </v>
   <v>       0.00000000     -49.53162675       0.00000000 </v>
   <v>       0.00000000       0.00000000     -49.53162675 </v>
  </varray>
  <energy>
   <i name="e_fr_energy">    -43.22224460 </i>
   <i name="e_wo_entrp">    -43.22226712 </i>
   <i name="e_0_energy">      0.00009008 </i>
  </energy>
  <time name="totalsc">   13.23   13.51</time>
  <eigenvalues>
   <array>
    <dimension dim="1">band</dimension>
    <dimension dim="2">kpoint</dimension>
    <dimension dim="3">spin</dimension>
    <field>eigene</field>
    <field>occ</field>
    <set>
     <set comment="spin 1">
      <set comment="kpoint 1">
       <r>   -6.3960    1.0000 </r>
       <r>   -2.5537    1.0000 </r>
       <r>   -2.5537    1.0000 </r>
       <r>   -2.5537    1.0000 </r>
       <r>   -2.5537    1.0000 </r>
       <r>   -2.5537    1.0000 </r>
       <r>   -2.5537    1.0000 </r>
       <r>    2.3672    1.0000 </r>
       <r>    2.3672    1.0000 </r>
       <r>    2.3672    1.0000 </r>
       <r>    2.3672    1.0000 </r>
       <r>    2.3672    1.0000 </r>
       <r>    2.3672    1.0000 </r>
       <r>    4.9982    0.8448 </r>
       <r>    4.9982    0.8448 </r>
       <r>    4.9982    0.8448 </r>
       <r>    5.8640    0.0000 </r>
       <r>    5.8640    0.0000 </r>
       <r>    5.8640    0.0000 </r>
       <r>    5.8640    0.0000 </r>
       <r>    5.8640    0.0000 </r>
       <r>    5.8640    0.0000 </r>
       <r>    7.4203    0.0000 </r>
       <r>    7.5253    0.0000 </r>
      </set>
      <set comment="kpoint 2">
       <r>   -6.3458    1.0000 </r>
       <r>   -3.3185    1.0000 </r>
       <r>   -2.5396    1.0000 </r>
       <r>   -2.5396    1.0000 </r>
       <r>   -2.5396    1.0000 </r>
       <r>   -2.5396    1.0000 </r>
       <r>   -1.7287    1.0000 </r>
       <r>    2.2371    1.0000 </r>
       <r>    2.2371    1.0000 </r>
       <r>    2.2371    1.0000 </r>
       <r>    2.2371    1.0000 </r>
       <r>    2.4128    1.0000 </r>
       <r>    2.4128    1.0000 </r>
       <r>    4.6073    1.0000 </r>
       <r>    4.8082    0.9962 </r>
       <r>    4.8082    0.9962 </r>
       <r>    5.7314    0.0000 </r>
       <r>    6.1248    0.0000 </r>
       <r>    6.1248    0.0000 </r>
       <r>    6.1248    0.0000 </r>
       <r>    6.1248    0.0000 </r>
       <r>    6.1329    0.0000 </r>
       <r>    7.4062    0.0000 </r>
       <r>    7.7778    0.0000 </r>
      </set>
      <set comment="kpoint 3">
       <r>   -6.1956    1.0000 </r>
       <r>   -4.0131    1.0000 </r>
       <r>   -2.5028    1.0000 </r>
       <r>   -2.5028    1.0000 </r>
       <r>   -2.5028    1.0000 </r>
       <r>   -2.5028    1.0000 </r>
       <r>   -0.8552    1.0000 </r>
       <r>    1.9522    1.0000 </r>
       <r>    1.9522    1.0000 </r>
       <r>    1.9522    1.0000 </r>
       <r>    1.9522    1.0000 </r>
       <r>    2.5489    1.0000 </r>
       <r>    2.5489    1.0000 </r>
       <r>    3.7988    1.0000 </r>
       <r>    4.3858    1.0000 </r>
       <r>    4.3858    1.0000 </r>
       <r>    5.7272    0.0000 </r>
       <r>    6.5424    0.0000 </r>
       <r>    6.8051    0.0000 </r>
       <r>    6.8051    0.0000 </r>
       <r>    6.8051    0.0000 </r>
       <r>    6.8051    0.0000 </r>
       <r>    7.1061    0.0000 </r>
       <r>    8.4529    0.0000 </r>
      </set>
      <set comment="kpoint 4">
       <r>   -5.9464    1.0000 </r>
       <r>   -4.6291    1.0000 </r>
       <r>   -2.4589    1.0000 </r>
       <r>   -2.4589    1.0000 </r>
       <r>   -2.4589    1.0000 </r>
       <r>   -2.4589    1.0000 </r>
       <r>    0.0545    1.0000 </r>
       <r>    1.6778    1.0000 </r>
       <r>    1.6778    1.0000 </r>
       <r>    1.6778    1.0000 </r>
       <r>    1.6778    1.0000 </r>
       <r>    2.7733    1.0000 </r>
       <r>    2.7733    1.0000 </r>
       <r>    2.8798    1.0000 </r>
       <r>    3.9118    1.0000 </r>
       <r>    3.9118    1.0000 </r>
       <r>    5.8413    0.0000 </r>
       <r>    6.7322    0.0000 </r>
       <r>    7.0899    0.0000 </r>
       <r>    7.7475    0.0000 </r>
       <r>    7.7475    0.0000 </r>
       <r>    7.7475    0.0000 </r>
       <r>    7.7475    0.0000 </r>
       <r>    8.8585    0.0000 </r>
      </set>
      <set comment="kpoint 5">
       <r>   -5.6003    1.0000 </r>
       <r>   -5.1598    1.0000 </r>
       <r>   -2.4289    1.0000 </r>
       <r>   -2.4289    1.0000 </r>
       <r>   -2.4289    1.0000 </r>
       <r>   -2.4289    1.0000 </r>
       <r>    0.9882    1.0000 </r>
       <r>    1.5171    1.0000 </r>
       <r>    1.5171    1.0000 </r>
       <r>    1.5171    1.0000 </r>
       <r>    1.5171    1.0000 </r>
       <r>    1.9344    1.0000 </r>
       <r>    3.0817    1.0000 </r>
       <r>    3.0817    1.0000 </r>
       <r>    3.4662    1.0000 </r>
       <r>    3.4662    1.0000 </r>
       <r>    6.0608    0.0000 </r>
       <r>    6.3674    0.0000 </r>
       <r>    7.7533    0.0000 </r>
       <r>    8.4489    0.0000 </r>
       <r>    8.8426    0.0000 </r>
       <r>    8.8426    0.0000 </r>
       <r>    8.8426    0.0000 </r>
       <r>    8.8426    0.0000 </r>
      </set>
      <set comment="kpoint 6">
       <r>   -6.2958    1.0000 </r>
       <r>   -3.2923    1.0000 </r>
       <r>   -3.2923    1.0000 </r>
       <r>   -2.6131    1.0000 </r>
       <r>   -2.4430    1.0000 </r>
       <r>   -1.7327    1.0000 </r>
       <r>   -1.7327    1.0000 </r>
       <r>    1.8707    1.0000 </r>
       <r>    2.2575    1.0000 </r>
       <r>    2.2575    1.0000 </r>
       <r>    2.3162    1.0000 </r>
       <r>    2.3162    1.0000 </r>
       <r>    2.4470    1.0000 </r>
       <r>    4.0982    1.0000 </r>
       <r>    4.6170    1.0000 </r>
       <r>    4.9491    1.0471 </r>
       <r>    5.9546    0.0000 </r>
       <r>    6.0059    0.0000 </r>
       <r>    6.0059    0.0000 </r>
       <r>    6.3764    0.0000 </r>
       <r>    6.3764    0.0000 </r>
       <r>    6.7172    0.0000 </r>
       <r>    7.5401    0.0000 </r>
       <r>    7.6303    0.0000 </r>
      </set>
      <set comment="kpoint 7">
       <r>   -6.1463    1.0000 </r>
       <r>   -3.9787    1.0000 </r>
       <r>   -3.2176    1.0000 </r>
       <r>   -2.6781    1.0000 </r>
       <r>   -2.3186    1.0000 </r>
       <r>   -1.7513    1.0000 </r>
       <r>   -0.8864    1.0000 </r>
       <r>    1.5144    1.0000 </r>
       <r>    1.9143    1.0000 </r>
       <r>    2.1119    1.0000 </r>
       <r>    2.3753    1.0000 </r>
       <r>    2.3964    1.0000 </r>
       <r>    2.4960    1.0000 </r>
       <r>    3.3609    1.0000 </r>
       <r>    4.1917    1.0000 </r>
       <r>    4.6698    1.0000 </r>
       <r>    6.0113    0.0000 </r>
       <r>    6.3028    0.0000 </r>
       <r>    6.7089    0.0000 </r>
       <r>    6.7655    0.0000 </r>
       <r>    7.0251    0.0000 </r>
       <r>    7.3714    0.0000 </r>
       <r>    7.5777    0.0000 </r>
       <r>    7.8637    0.0000 </r>
      </set>
      <set comment="kpoint 8">
       <r>   -5.8983    1.0000 </r>
       <r>   -4.5892    1.0000 </r>
       <r>   -3.1063    1.0000 </r>
       <r>   -2.7538    1.0000 </r>
       <r>   -2.1727    1.0000 </r>
       <r>   -1.8001    1.0000 </r>
       <r>   -0.0172    1.0000 </r>
       <r>    1.2741    1.0000 </r>
       <r>    1.5620    1.0000 </r>
       <r>    1.9425    1.0000 </r>
       <r>    2.1906    1.0000 </r>
       <r>    2.5594    1.0000 </r>
       <r>    2.5873    1.0000 </r>
       <r>    2.7766    1.0000 </r>
       <r>    3.7152    1.0000 </r>
       <r>    4.1556    1.0000 </r>
       <r>    6.1306    0.0000 </r>
       <r>    7.0101    0.0000 </r>
       <r>    7.0628    0.0000 </r>
       <r>    7.2900    0.0000 </r>
       <r>    7.6669    0.0000 </r>
       <r>    7.9420    0.0000 </r>
       <r>    8.4473    0.0000 </r>
       <r>    8.6110    0.0000 </r>
      </set>
      <set comment="kpoint 9">
       <r>   -5.5539    1.0000 </r>
       <r>   -5.1161    1.0000 </r>
       <r>   -2.9775    1.0000 </r>
       <r>   -2.8542    1.0000 </r>
       <r>   -2.0225    1.0000 </r>
       <r>   -1.8917    1.0000 </r>
       <r>    0.8572    1.0000 </r>
       <r>    1.2013    1.0000 </r>
       <r>    1.3055    1.0000 </r>
       <r>    1.7206    1.0000 </r>
       <r>    1.8954    1.0000 </r>
       <r>    1.9908    1.0000 </r>
       <r>    2.8882    1.0000 </r>
       <r>    3.1556    1.0000 </r>
       <r>    3.2695    1.0000 </r>
       <r>    3.6242    1.0000 </r>
       <r>    6.3509    0.0000 </r>
       <r>    6.6537    0.0000 </r>
       <r>    7.9246    0.0000 </r>
       <r>    8.0739    0.0000 </r>
       <r>    8.5357    0.0000 </r>
       <r>    8.7786    0.0000 </r>
       <r>    8.9626    0.0000 </r>
       <r>    9.3561    0.0000 </r>
      </set>
      <set comment="kpoint 10">
       <r>   -5.9987    1.0000 </r>
       <r>   -3.8783    1.0000 </r>
       <r>   -3.8783    1.0000 </r>
       <r>   -2.8624    1.0000 </r>
       <r>   -2.1116    1.0000 </r>
       <r>   -0.9837    1.0000 </r>
       <r>   -0.9837    1.0000 </r>
       <r>    1.1908    1.0000 </r>
       <r>    1.9914    1.0000 </r>
       <r>    1.9914    1.0000 </r>
       <r>    2.3981    1.0000 </r>
       <r>    2.3981    1.0000 </r>
       <r>    2.6805    1.0000 </r>
       <r>    2.6811    1.0000 </r>
       <r>    3.7603    1.0000 </r>
       <r>    4.7814    0.9981 </r>
       <r>    6.2195    0.0000 </r>
       <r>    6.7278    0.0000 </r>
       <r>    6.7278    0.0000 </r>
       <r>    7.3741    0.0000 </r>
       <r>    7.3741    0.0000 </r>
       <r>    7.6767    0.0000 </r>
       <r>    7.9422    0.0000 </r>
       <r>    8.1089    0.0000 </r>
      </set>
      <set comment="kpoint 11">
       <r>   -5.7543    1.0000 </r>
       <r>   -4.4711    1.0000 </r>
       <r>   -3.7199    1.0000 </r>
       <r>   -3.0684    1.0000 </r>
       <r>   -1.8780    1.0000 </r>
       <r>   -1.1500    1.0000 </r>
       <r>   -0.2200    1.0000 </r>
       <r>    1.0353    1.0000 </r>
       <r>    1.5847    1.0000 </r>
       <r>    1.9719    1.0000 </r>
       <r>    2.1763    1.0000 </r>
       <r>    2.3567    1.0000 </r>
       <r>    2.7028    1.0000 </r>
       <r>    2.8092    1.0000 </r>
       <r>    3.2795    1.0000 </r>
       <r>    4.4594    1.0000 </r>
       <r>    6.6442    0.0000 </r>
       <r>    6.8517    0.0000 </r>
       <r>    7.6854    0.0000 </r>
       <r>    7.6916    0.0000 </r>
       <r>    7.8492    0.0000 </r>
       <r>    7.9659    0.0000 </r>
       <r>    8.2562    0.0000 </r>
       <r>    8.8737    0.0000 </r>
      </set>
      <set comment="kpoint 12">
       <r>   -5.4155    1.0000 </r>
       <r>   -4.9860    1.0000 </r>
       <r>   -3.5179    1.0000 </r>
       <r>   -3.2929    1.0000 </r>
       <r>   -1.6252    1.0000 </r>
       <r>   -1.3729    1.0000 </r>
       <r>    0.5267    1.0000 </r>
       <r>    1.0623    1.0000 </r>
       <r>    1.2549    1.0000 </r>
       <r>    1.2568    1.0000 </r>
       <r>    2.4196    1.0000 </r>
       <r>    2.4609    1.0000 </r>
       <r>    2.5647    1.0000 </r>
       <r>    2.8346    1.0000 </r>
       <r>    3.3282    1.0000 </r>
       <r>    3.9102    1.0000 </r>
       <r>    7.0672    0.0000 </r>
       <r>    7.3552    0.0000 </r>
       <r>    7.4672    0.0000 </r>
       <r>    8.3974    0.0000 </r>
       <r>    8.4644    0.0000 </r>
       <r>    8.5241    0.0000 </r>
       <r>    8.8038    0.0000 </r>
       <r>    9.3653    0.0000 </r>
      </set>
      <set comment="kpoint 13">
       <r>   -5.5164    1.0000 </r>
       <r>   -4.2804    1.0000 </r>
       <r>   -4.2804    1.0000 </r>
       <r>   -3.3986    1.0000 </r>
       <r>   -1.5618    1.0000 </r>
       <r>   -0.5180    1.0000 </r>
       <r>   -0.5180    1.0000 </r>
       <r>    0.9784    1.0000 </r>
       <r>    1.3432    1.0000 </r>
       <r>    1.7334    1.0000 </r>
       <r>    1.7334    1.0000 </r>
       <r>    2.7974    1.0000 </r>
       <r>    2.8992    1.0000 </r>
       <r>    2.8992    1.0000 </r>
       <r>    3.0491    1.0000 </r>
       <r>    4.4641    1.0000 </r>
       <r>    6.6335    0.0000 </r>
       <r>    7.7603    0.0000 </r>
       <r>    7.8111    0.0000 </r>
       <r>    7.8111    0.0000 </r>
       <r>    8.4605    0.0000 </r>
       <r>    8.6786    0.0000 </r>
       <r>    8.6786    0.0000 </r>
       <r>    8.6979    0.0000 </r>
      </set>
      <set comment="kpoint 14">
       <r>   -5.1877    1.0000 </r>
       <r>   -4.7732    1.0000 </r>
       <r>   -4.0270    1.0000 </r>
       <r>   -3.7260    1.0000 </r>
       <r>   -1.2209    1.0000 </r>
       <r>   -0.8648    1.0000 </r>
       <r>    0.1003    1.0000 </r>
       <r>    0.7177    1.0000 </r>
       <r>    1.0935    1.0000 </r>
       <r>    1.3561    1.0000 </r>
       <r>    1.9955    1.0000 </r>
       <r>    2.3568    1.0000 </r>
       <r>    3.0312    1.0000 </r>
       <r>    3.1280    1.0000 </r>
       <r>    3.5140    1.0000 </r>
       <r>    4.0945    1.0000 </r>
       <r>    7.1103    0.0000 </r>
       <r>    7.9369    0.0000 </r>
       <r>    7.9618    0.0000 </r>
       <r>    8.0111    0.0000 </r>
       <r>    8.2693    0.0000 </r>
       <r>    8.3838    0.0000 </r>
       <r>    8.9104    0.0000 </r>
       <r>    9.2764    0.0000 </r>
      </set>
      <set comment="kpoint 15">
       <r>   -4.8749    1.0000 </r>
       <r>   -4.4844    1.0000 </r>
       <r>   -4.4844    1.0000 </r>
       <r>   -4.1302    1.0000 </r>
       <r>   -0.7974    1.0000 </r>
       <r>   -0.3526    1.0000 </r>
       <r>   -0.3526    1.0000 </r>
       <r>    0.1750    1.0000 </r>
       <r>    1.2757    1.0000 </r>
       <r>    1.5857    1.0000 </r>
       <r>    1.5857    1.0000 </r>
       <r>    1.9271    1.0000 </r>
       <r>    3.5154    1.0000 </r>
       <r>    3.6194    1.0000 </r>
       <r>    3.6194    1.0000 </r>
       <r>    4.0162    1.0000 </r>
       <r>    7.1344    0.0000 </r>
       <r>    7.5799    0.0000 </r>
       <r>    7.6070    0.0000 </r>
       <r>    7.6070    0.0000 </r>
       <r>    9.0809    0.0000 </r>
       <r>    9.0809    0.0000 </r>
       <r>    9.1807    0.0000 </r>
       <r>    9.4712    0.0000 </r>
      </set>
      <set comment="kpoint 16">
       <r>   -6.2461    1.0000 </r>
       <r>   -3.2719    1.0000 </r>
       <r>   -3.2719    1.0000 </r>
       <r>   -3.2719    1.0000 </r>
       <r>   -1.7374    1.0000 </r>
       <r>   -1.7374    1.0000 </r>
       <r>   -1.7374    1.0000 </r>
       <r>    1.9331    1.0000 </r>
       <r>    1.9331    1.0000 </r>
       <r>    1.9331    1.0000 </r>
       <r>    2.4917    1.0000 </r>
       <r>    2.4917    1.0000 </r>
       <r>    2.4917    1.0000 </r>
       <r>    3.6582    1.0000 </r>
       <r>    4.7811    0.9981 </r>
       <r>    4.7811    0.9981 </r>
       <r>    5.9848    0.0000 </r>
       <r>    5.9848    0.0000 </r>
       <r>    5.9848    0.0000 </r>
       <r>    6.8178    0.0000 </r>
       <r>    6.8178    0.0000 </r>
       <r>    6.8178    0.0000 </r>
       <r>    7.2676    0.0000 </r>
       <r>    7.8462    0.0000 </r>
      </set>
      <set comment="kpoint 17">
       <r>   -6.0972    1.0000 </r>
       <r>   -3.9470    1.0000 </r>
       <r>   -3.2172    1.0000 </r>
       <r>   -3.2172    1.0000 </r>
       <r>   -1.7537    1.0000 </r>
       <r>   -1.7537    1.0000 </r>
       <r>   -0.9256    1.0000 </r>
       <r>    1.5913    1.0000 </r>
       <r>    1.5913    1.0000 </r>
       <r>    2.1212    1.0000 </r>
       <r>    2.4503    1.0000 </r>
       <r>    2.4503    1.0000 </r>
       <r>    2.6252    1.0000 </r>
       <r>    2.9657    1.0000 </r>
       <r>    4.3941    1.0000 </r>
       <r>    4.5798    1.0000 </r>
       <r>    6.0831    0.0000 </r>
       <r>    6.3499    0.0000 </r>
       <r>    6.3499    0.0000 </r>
       <r>    7.1088    0.0000 </r>
       <r>    7.3457    0.0000 </r>
       <r>    7.6545    0.0000 </r>
       <r>    7.6545    0.0000 </r>
       <r>    7.7586    0.0000 </r>
      </set>
      <set comment="kpoint 18">
       <r>   -5.8505    1.0000 </r>
       <r>   -4.5507    1.0000 </r>
       <r>   -3.1488    1.0000 </r>
       <r>   -3.1488    1.0000 </r>
       <r>   -1.7816    1.0000 </r>
       <r>   -1.7816    1.0000 </r>
       <r>   -0.1055    1.0000 </r>
       <r>    1.3512    1.0000 </r>
       <r>    1.3512    1.0000 </r>
       <r>    2.2338    1.0000 </r>
       <r>    2.2756    1.0000 </r>
       <r>    2.2756    1.0000 </r>
       <r>    2.4364    1.0000 </r>
       <r>    2.8449    1.0000 </r>
       <r>    3.9466    1.0000 </r>
       <r>    4.0353    1.0000 </r>
       <r>    6.2599    0.0000 </r>
       <r>    7.1099    0.0000 </r>
       <r>    7.1099    0.0000 </r>
       <r>    7.1714    0.0000 </r>
       <r>    7.5662    0.0000 </r>
       <r>    8.1991    0.0000 </r>
       <r>    8.6774    0.0000 </r>
       <r>    8.6774    0.0000 </r>
      </set>
      <set comment="kpoint 19">
       <r>   -5.5080    1.0000 </r>
       <r>   -5.0732    1.0000 </r>
       <r>   -3.0996    1.0000 </r>
       <r>   -3.0996    1.0000 </r>
       <r>   -1.8066    1.0000 </r>
       <r>   -1.8066    1.0000 </r>
       <r>    0.7010    1.0000 </r>
       <r>    1.2374    1.0000 </r>
       <r>    1.2374    1.0000 </r>
       <r>    1.4807    1.0000 </r>
       <r>    2.1378    1.0000 </r>
       <r>    2.1378    1.0000 </r>
       <r>    2.8767    1.0000 </r>
       <r>    3.1458    1.0000 </r>
       <r>    3.4260    1.0000 </r>
       <r>    3.5187    1.0000 </r>
       <r>    6.5143    0.0000 </r>
       <r>    6.8315    0.0000 </r>
       <r>    8.1176    0.0000 </r>
       <r>    8.1176    0.0000 </r>
       <r>    8.1454    0.0000 </r>
       <r>    8.6099    0.0000 </r>
       <r>    9.2633    0.0000 </r>
       <r>    9.2633    0.0000 </r>
      </set>
      <set comment="kpoint 20">
       <r>   -5.9505    1.0000 </r>
       <r>   -3.8555    1.0000 </r>
       <r>   -3.8555    1.0000 </r>
       <r>   -3.2284    1.0000 </r>
       <r>   -1.7501    1.0000 </r>
       <r>   -1.0418    1.0000 </r>
       <r>   -1.0418    1.0000 </r>
       <r>    1.3069    1.0000 </r>
       <r>    1.8182    1.0000 </r>
       <r>    1.8182    1.0000 </r>
       <r>    2.3140    1.0000 </r>
       <r>    2.6145    1.0000 </r>
       <r>    2.6145    1.0000 </r>
       <r>    2.7224    1.0000 </r>
       <r>    4.0722    1.0000 </r>
       <r>    4.6694    1.0000 </r>
       <r>    6.2767    0.0000 </r>
       <r>    6.4878    0.0000 </r>
       <r>    6.4878    0.0000 </r>
       <r>    7.2262    0.0000 </r>
       <r>    7.8850    0.0000 </r>
       <r>    7.8850    0.0000 </r>
       <r>    8.0570    0.0000 </r>
       <r>    8.3541    0.0000 </r>
      </set>
      <set comment="kpoint 21">
       <r>   -5.7077    1.0000 </r>
       <r>   -4.4375    1.0000 </r>
       <r>   -3.7160    1.0000 </r>
       <r>   -3.2806    1.0000 </r>
       <r>   -1.7090    1.0000 </r>
       <r>   -1.2206    1.0000 </r>
       <r>   -0.3437    1.0000 </r>
       <r>    1.1829    1.0000 </r>
       <r>    1.5645    1.0000 </r>
       <r>    1.6443    1.0000 </r>
       <r>    2.1767    1.0000 </r>
       <r>    2.5358    1.0000 </r>
       <r>    2.7513    1.0000 </r>
       <r>    2.8974    1.0000 </r>
       <r>    3.5973    1.0000 </r>
       <r>    4.3647    1.0000 </r>
       <r>    6.6982    0.0000 </r>
       <r>    6.7065    0.0000 </r>
       <r>    7.2468    0.0000 </r>
       <r>    7.4083    0.0000 </r>
       <r>    8.0342    0.0000 </r>
       <r>    8.2630    0.0000 </r>
       <r>    8.8771    0.0000 </r>
       <r>    8.8778    0.0000 </r>
      </set>
      <set comment="kpoint 22">
       <r>   -5.3715    1.0000 </r>
       <r>   -4.9460    1.0000 </r>
       <r>   -3.5507    1.0000 </r>
       <r>   -3.3933    1.0000 </r>
       <r>   -1.5992    1.0000 </r>
       <r>   -1.4234    1.0000 </r>
       <r>    0.3284    1.0000 </r>
       <r>    0.9850    1.0000 </r>
       <r>    1.2135    1.0000 </r>
       <r>    1.3569    1.0000 </r>
       <r>    2.5346    1.0000 </r>
       <r>    2.6230    1.0000 </r>
       <r>    2.6360    1.0000 </r>
       <r>    3.1055    1.0000 </r>
       <r>    3.3097    1.0000 </r>
       <r>    3.8332    1.0000 </r>
       <r>    6.9869    0.0000 </r>
       <r>    7.2858    0.0000 </r>
       <r>    7.5127    0.0000 </r>
       <r>    8.2429    0.0000 </r>
       <r>    8.4510    0.0000 </r>
       <r>    8.5633    0.0000 </r>
       <r>    8.7065    0.0000 </r>
       <r>    9.4170    0.0000 </r>
      </set>
      <set comment="kpoint 23">
       <r>   -5.4720    1.0000 </r>
       <r>   -4.2567    1.0000 </r>
       <r>   -4.2567    1.0000 </r>
       <r>   -3.4947    1.0000 </r>
       <r>   -1.5554    1.0000 </r>
       <r>   -0.6676    1.0000 </r>
       <r>   -0.6676    1.0000 </r>
       <r>    1.0313    1.0000 </r>
       <r>    1.1790    1.0000 </r>
       <r>    1.8733    1.0000 </r>
       <r>    1.8733    1.0000 </r>
       <r>    2.9671    1.0000 </r>
       <r>    2.9671    1.0000 </r>
       <r>    3.0848    1.0000 </r>
       <r>    3.1328    1.0000 </r>
       <r>    4.4152    1.0000 </r>
       <r>    6.6851    0.0000 </r>
       <r>    7.4353    0.0000 </r>
       <r>    7.4573    0.0000 </r>
       <r>    7.4573    0.0000 </r>
       <r>    8.4307    0.0000 </r>
       <r>    8.6883    0.0000 </r>
       <r>    9.0343    0.0000 </r>
       <r>    9.0374    0.0000 </r>
      </set>
      <set comment="kpoint 24">
       <r>   -5.1471    1.0000 </r>
       <r>   -4.7389    1.0000 </r>
       <r>   -4.0220    1.0000 </r>
       <r>   -3.7564    1.0000 </r>
       <r>   -1.3161    1.0000 </r>
       <r>   -1.0089    1.0000 </r>
       <r>   -0.1201    1.0000 </r>
       <r>    0.4417    1.0000 </r>
       <r>    1.3209    1.0000 </r>
       <r>    1.5689    1.0000 </r>
       <r>    2.2464    1.0000 </r>
       <r>    2.6708    1.0000 </r>
       <r>    3.0801    1.0000 </r>
       <r>    3.1657    1.0000 </r>
       <r>    3.5172    1.0000 </r>
       <r>    4.0664    1.0000 </r>
       <r>    7.1495    0.0000 </r>
       <r>    7.6483    0.0000 </r>
       <r>    7.6854    0.0000 </r>
       <r>    7.9681    0.0000 </r>
       <r>    8.2925    0.0000 </r>
       <r>    8.4486    0.0000 </r>
       <r>    8.4578    0.0000 </r>
       <r>    9.3124    0.0000 </r>
      </set>
      <set comment="kpoint 25">
       <r>   -4.8403    1.0000 </r>
       <r>   -4.4604    1.0000 </r>
       <r>   -4.4604    1.0000 </r>
       <r>   -4.1250    1.0000 </r>
       <r>   -0.9691    1.0000 </r>
       <r>   -0.5650    1.0000 </r>
       <r>   -0.5650    1.0000 </r>
       <r>   -0.0816    1.0000 </r>
       <r>    1.5485    1.0000 </r>
       <r>    1.8690    1.0000 </r>
       <r>    1.8690    1.0000 </r>
       <r>    2.2441    1.0000 </r>
       <r>    3.5382    1.0000 </r>
       <r>    3.6349    1.0000 </r>
       <r>    3.6349    1.0000 </r>
       <r>    4.0133    1.0000 </r>
       <r>    7.1552    0.0000 </r>
       <r>    7.4916    0.0000 </r>
       <r>    7.5827    0.0000 </r>
       <r>    7.5827    0.0000 </r>
       <r>    8.7203    0.0000 </r>
       <r>    8.7203    0.0000 </r>
       <r>    9.0020    0.0000 </r>
       <r>    9.0309    0.0000 </r>
      </set>
      <set comment="kpoint 26">
       <r>   -5.8065    1.0000 </r>
       <r>   -3.7943    1.0000 </r>
       <r>   -3.7943    1.0000 </r>
       <r>   -3.7943    1.0000 </r>
       <r>   -1.1936    1.0000 </r>
       <r>   -1.1936    1.0000 </r>
       <r>   -1.1936    1.0000 </r>
       <r>    1.6475    1.0000 </r>
       <r>    1.6475    1.0000 </r>
       <r>    1.6475    1.0000 </r>
       <r>    1.6885    1.0000 </r>
       <r>    2.8470    1.0000 </r>
       <r>    2.8470    1.0000 </r>
       <r>    2.8470    1.0000 </r>
       <r>    4.3856    1.0000 </r>
       <r>    4.3856    1.0000 </r>
       <r>    6.4429    0.0000 </r>
       <r>    6.4429    0.0000 </r>
       <r>    6.4429    0.0000 </r>
       <r>    6.8347    0.0000 </r>
       <r>    8.3576    0.0000 </r>
       <r>    8.3577    0.0000 </r>
       <r>    8.7883    0.0000 </r>
       <r>    8.7883    0.0000 </r>
      </set>
      <set comment="kpoint 27">
       <r>   -5.5687    1.0000 </r>
       <r>   -4.3405    1.0000 </r>
       <r>   -3.7172    1.0000 </r>
       <r>   -3.7172    1.0000 </r>
       <r>   -1.3735    1.0000 </r>
       <r>   -1.3735    1.0000 </r>
       <r>   -0.6430    1.0000 </r>
       <r>    1.0576    1.0000 </r>
       <r>    1.5878    1.0000 </r>
       <r>    1.5878    1.0000 </r>
       <r>    2.1809    1.0000 </r>
       <r>    2.8984    1.0000 </r>
       <r>    2.8984    1.0000 </r>
       <r>    3.0503    1.0000 </r>
       <r>    4.0248    1.0000 </r>
       <r>    4.1662    1.0000 </r>
       <r>    6.6996    0.0000 </r>
       <r>    6.8533    0.0000 </r>
       <r>    6.8533    0.0000 </r>
       <r>    6.9703    0.0000 </r>
       <r>    8.1950    0.0000 </r>
       <r>    8.7738    0.0000 </r>
       <r>    9.1033    0.0000 </r>
       <r>    9.7690    0.0000 </r>
      </set>
      <set comment="kpoint 28">
       <r>   -5.2407    1.0000 </r>
       <r>   -4.8281    1.0000 </r>
       <r>   -3.6614    1.0000 </r>
       <r>   -3.6614    1.0000 </r>
       <r>   -1.4956    1.0000 </r>
       <r>   -1.4956    1.0000 </r>
       <r>   -0.0993    1.0000 </r>
       <r>    0.4617    1.0000 </r>
       <r>    1.5894    1.0000 </r>
       <r>    1.5894    1.0000 </r>
       <r>    2.8455    1.0000 </r>
       <r>    2.8569    1.0000 </r>
       <r>    2.8569    1.0000 </r>
       <r>    3.3249    1.0000 </r>
       <r>    3.5545    1.0000 </r>
       <r>    3.6575    1.0000 </r>
       <r>    6.9997    0.0000 </r>
       <r>    7.1913    0.0000 </r>
       <r>    7.6358    0.0000 </r>
       <r>    7.6358    0.0000 </r>
       <r>    8.3040    0.0000 </r>
       <r>    8.6728    0.0000 </r>
       <r>    8.6728    0.0000 </r>
       <r>    8.9621    0.0000 </r>
      </set>
      <set comment="kpoint 29">
       <r>   -5.3402    1.0000 </r>
       <r>   -4.1930    1.0000 </r>
       <r>   -4.1930    1.0000 </r>
       <r>   -3.7563    1.0000 </r>
       <r>   -1.4871    1.0000 </r>
       <r>   -0.9903    1.0000 </r>
       <r>   -0.9903    1.0000 </r>
       <r>    0.4654    1.0000 </r>
       <r>    1.6992    1.0000 </r>
       <r>    2.1527    1.0000 </r>
       <r>    2.1527    1.0000 </r>
       <r>    3.1513    1.0000 </r>
       <r>    3.1513    1.0000 </r>
       <r>    3.1897    1.0000 </r>
       <r>    3.7175    1.0000 </r>
       <r>    4.2750    1.0000 </r>
       <r>    6.8279    0.0000 </r>
       <r>    6.8366    0.0000 </r>
       <r>    7.0806    0.0000 </r>
       <r>    7.0806    0.0000 </r>
       <r>    8.4056    0.0000 </r>
       <r>    8.6253    0.0000 </r>
       <r>    9.0547    0.0000 </r>
       <r>    9.0547    0.0000 </r>
      </set>
      <set comment="kpoint 30">
       <r>   -5.0275    1.0000 </r>
       <r>   -4.6398    1.0000 </r>
       <r>   -4.0200    1.0000 </r>
       <r>   -3.8608    1.0000 </r>
       <r>   -1.4658    1.0000 </r>
       <r>   -1.2874    1.0000 </r>
       <r>   -0.5628    1.0000 </r>
       <r>   -0.0787    1.0000 </r>
       <r>    1.8696    1.0000 </r>
       <r>    2.0427    1.0000 </r>
       <r>    2.7513    1.0000 </r>
       <r>    3.2284    1.0000 </r>
       <r>    3.2775    1.0000 </r>
       <r>    3.2782    1.0000 </r>
       <r>    3.5234    1.0000 </r>
       <r>    3.9768    1.0000 </r>
       <r>    7.1174    0.0000 </r>
       <r>    7.2426    0.0000 </r>
       <r>    7.2707    0.0000 </r>
       <r>    7.7029    0.0000 </r>
       <r>    8.2028    0.0000 </r>
       <r>    8.2808    0.0000 </r>
       <r>    8.4395    0.0000 </r>
       <r>    8.8348    0.0000 </r>
      </set>
      <set comment="kpoint 31">
       <r>   -4.7407    1.0000 </r>
       <r>   -4.3957    1.0000 </r>
       <r>   -4.3957    1.0000 </r>
       <r>   -4.1221    1.0000 </r>
       <r>   -1.2868    1.0000 </r>
       <r>   -0.9742    1.0000 </r>
       <r>   -0.9742    1.0000 </r>
       <r>   -0.5663    1.0000 </r>
       <r>    2.1727    1.0000 </r>
       <r>    2.4821    1.0000 </r>
       <r>    2.4821    1.0000 </r>
       <r>    2.8947    1.0000 </r>
       <r>    3.6028    1.0000 </r>
       <r>    3.6761    1.0000 </r>
       <r>    3.6761    1.0000 </r>
       <r>    3.9996    1.0000 </r>
       <r>    7.1383    0.0000 </r>
       <r>    7.1705    0.0000 </r>
       <r>    7.3921    0.0000 </r>
       <r>    7.3921    0.0000 </r>
       <r>    8.3220    0.0000 </r>
       <r>    8.3220    0.0000 </r>
       <r>    8.6063    0.0000 </r>
       <r>    8.6826    0.0000 </r>
      </set>
      <set comment="kpoint 32">
       <r>   -5.1255    1.0000 </r>
       <r>   -4.1126    1.0000 </r>
       <r>   -4.1126    1.0000 </r>
       <r>   -4.1126    1.0000 </r>
       <r>   -1.3040    1.0000 </r>
       <r>   -1.3040    1.0000 </r>
       <r>   -1.3040    1.0000 </r>
       <r>   -0.0976    1.0000 </r>
       <r>    2.3958    1.0000 </r>
       <r>    2.3958    1.0000 </r>
       <r>    2.3958    1.0000 </r>
       <r>    3.3569    1.0000 </r>
       <r>    3.3569    1.0000 </r>
       <r>    3.3569    1.0000 </r>
       <r>    4.0653    1.0000 </r>
       <r>    4.0653    1.0000 </r>
       <r>    6.4656    0.0000 </r>
       <r>    7.0072    0.0000 </r>
       <r>    7.0072    0.0000 </r>
       <r>    7.0072    0.0000 </r>
       <r>    8.4802    0.0000 </r>
       <r>    8.4802    0.0000 </r>
       <r>    8.8950    0.0000 </r>
       <r>    8.8950    0.0000 </r>
      </set>
      <set comment="kpoint 33">
       <r>   -4.8366    1.0000 </r>
       <r>   -4.4894    1.0000 </r>
       <r>   -4.0544    1.0000 </r>
       <r>   -4.0544    1.0000 </r>
       <r>   -1.4927    1.0000 </r>
       <r>   -1.4927    1.0000 </r>
       <r>   -1.0023    1.0000 </r>
       <r>   -0.5949    1.0000 </r>
       <r>    2.5359    1.0000 </r>
       <r>    2.5359    1.0000 </r>
       <r>    3.1473    1.0000 </r>
       <r>    3.4658    1.0000 </r>
       <r>    3.4658    1.0000 </r>
       <r>    3.5738    1.0000 </r>
       <r>    3.8060    1.0000 </r>
       <r>    3.8197    1.0000 </r>
       <r>    6.6621    0.0000 </r>
       <r>    7.0217    0.0000 </r>
       <r>    7.2539    0.0000 </r>
       <r>    7.2539    0.0000 </r>
       <r>    8.2947    0.0000 </r>
       <r>    8.3131    0.0000 </r>
       <r>    8.3131    0.0000 </r>
       <r>    8.3237    0.0000 </r>
      </set>
      <set comment="kpoint 34">
       <r>   -4.5896    1.0000 </r>
       <r>   -4.3142    1.0000 </r>
       <r>   -4.3142    1.0000 </r>
       <r>   -4.1553    1.0000 </r>
       <r>   -1.5170    1.0000 </r>
       <r>   -1.3408    1.0000 </r>
       <r>   -1.3408    1.0000 </r>
       <r>   -1.0293    1.0000 </r>
       <r>    2.9128    1.0000 </r>
       <r>    3.1444    1.0000 </r>
       <r>    3.1444    1.0000 </r>
       <r>    3.5570    1.0000 </r>
       <r>    3.6972    1.0000 </r>
       <r>    3.7305    1.0000 </r>
       <r>    3.7305    1.0000 </r>
       <r>    3.9639    1.0000 </r>
       <r>    6.5876    0.0000 </r>
       <r>    6.9358    0.0000 </r>
       <r>    6.9358    0.0000 </r>
       <r>    6.9891    0.0000 </r>
       <r>    8.2513    0.0000 </r>
       <r>    8.2513    0.0000 </r>
       <r>    8.3879    0.0000 </r>
       <r>    8.4517    0.0000 </r>
      </set>
      <set comment="kpoint 35">
       <r>   -4.4138    1.0000 </r>
       <r>   -4.2551    1.0000 </r>
       <r>   -4.2551    1.0000 </r>
       <r>   -4.2551    1.0000 </r>
       <r>   -1.5530    1.0000 </r>
       <r>   -1.5530    1.0000 </r>
       <r>   -1.5530    1.0000 </r>
       <r>   -1.3777    1.0000 </r>
       <r>    3.5919    1.0000 </r>
       <r>    3.5919    1.0000 </r>
       <r>    3.5919    1.0000 </r>
       <r>    3.8026    1.0000 </r>
       <r>    3.8026    1.0000 </r>
       <r>    3.8026    1.0000 </r>
       <r>    3.8971    1.0000 </r>
       <r>    3.8971    1.0000 </r>
       <r>    6.2669    0.0000 </r>
       <r>    6.5273    0.0000 </r>
       <r>    6.5273    0.0000 </r>
       <r>    6.5273    0.0000 </r>
       <r>    8.3081    0.0000 </r>
       <r>    8.3081    0.0000 </r>
       <r>    8.3086    0.0000 </r>
       <r>    8.3851    0.0000 </r>
      </set>
     </set>
    </set>
   </array>
  </eigenvalues>
  <separator name="orbital magnetization" >
   <v name="MAGDIPOLOUT">      0.00000000      0.00000000      0.00000000</v>
  </separator>
  <dos>
   <i name="efermi">      5.03419674 </i>
   <total>
    <array>
     <dimension dim="1">gridpoints</dimension>
     <dimension dim="2">spin</dimension>
     <field>energy</field>
     <field>total</field>
     <field>integrated</field>
     <set>
      <set comment="spin 1">
       <r>    -7.3960     0.0000     0.0000 </r>
       <r>    -7.3355     0.0000     0.0000 </r>
       <r>    -7.2749     0.0000     0.0000 </r>
       <r>    -7.2144     0.0000     0.0000 </r>
       <r>    -7.1538     0.0000     0.0000 </r>
       <r>    -7.0933     0.0000     0.0000 </r>
       <r>    -7.0327     0.0000     0.0000 </r>
       <r>    -6.9722     0.0000     0.0000 </r>
       <r>    -6.9116     0.0000     0.0000 </r>
       <r>    -6.8511     0.0000     0.0000 </r>
       <r>    -6.7905     0.0000     0.0000 </r>
       <r>    -6.7300     0.0000     0.0000 </r>
       <r>    -6.6694     0.0001     0.0000 </r>
       <r>    -6.6089     0.0006     0.0000 </r>
       <r>    -6.5483     0.0014     0.0001 </r>
       <r>    -6.4878    -0.0055    -0.0002 </r>
       <r>    -6.4272    -0.0113    -0.0009 </r>
       <r>    -6.3667     0.1083     0.0057 </r>
       <r>    -6.3061     0.3969     0.0297 </r>
       <r>    -6.2456     0.4850     0.0591 </r>
       <r>    -6.1850     0.5362     0.0915 </r>
       <r>    -6.1245     1.0245     0.1536 </r>
       <r>    -6.0639     0.9364     0.2103 </r>
       <r>    -6.0034     0.5128     0.2413 </r>
       <r>    -5.9428     1.0425     0.3044 </r>
       <r>    -5.8823     1.4671     0.3933 </r>
       <r>    -5.8217     1.1177     0.4609 </r>
       <r>    -5.7612     1.1070     0.5280 </r>
       <r>    -5.7006     1.6586     0.6284 </r>
       <r>    -5.6401     0.9800     0.6877 </r>
       <r>    -5.5795     0.8857     0.7414 </r>
       <r>    -5.5190     2.0123     0.8632 </r>
       <r>    -5.4584     1.8892     0.9776 </r>
       <r>    -5.3979     1.7857     1.0857 </r>
       <r>    -5.3373     2.0847     1.2120 </r>
       <r>    -5.2768     1.0375     1.2748 </r>
       <r>    -5.2162     0.8177     1.3243 </r>
       <r>    -5.1557     2.1727     1.4558 </r>
       <r>    -5.0951     2.6926     1.6189 </r>
       <r>    -5.0346     2.2480     1.7550 </r>
       <r>    -4.9740     2.2966     1.8940 </r>
       <r>    -4.9135     1.8560     2.0064 </r>
       <r>    -4.8529     1.7298     2.1112 </r>
       <r>    -4.7924     2.5706     2.2668 </r>
       <r>    -4.7318     2.7174     2.4314 </r>
       <r>    -4.6713     1.9395     2.5488 </r>
       <r>    -4.6107     2.0571     2.6734 </r>
       <r>    -4.5502     2.2159     2.8075 </r>
       <r>    -4.4896     2.9146     2.9840 </r>
       <r>    -4.4291     4.5907     3.2620 </r>
       <r>    -4.3685     3.5143     3.4748 </r>
       <r>    -4.3080     2.7631     3.6421 </r>
       <r>    -4.2474     3.4514     3.8511 </r>
       <r>    -4.1869     3.0389     4.0351 </r>
       <r>    -4.1263     2.9743     4.2152 </r>
       <r>    -4.0658     3.8496     4.4483 </r>
       <r>    -4.0052     4.9281     4.7467 </r>
       <r>    -3.9447     3.2400     4.9428 </r>
       <r>    -3.8841     2.1278     5.0717 </r>
       <r>    -3.8236     3.0205     5.2546 </r>
       <r>    -3.7630     3.9583     5.4942 </r>
       <r>    -3.7025     5.8365     5.8476 </r>
       <r>    -3.6419     3.6977     6.0715 </r>
       <r>    -3.5814     1.0564     6.1355 </r>
       <r>    -3.5208     1.8219     6.2458 </r>
       <r>    -3.4603     1.7949     6.3545 </r>
       <r>    -3.3997     1.2334     6.4292 </r>
       <r>    -3.3392     1.6480     6.5290 </r>
       <r>    -3.2786     3.3491     6.7318 </r>
       <r>    -3.2181     4.4330     7.0002 </r>
       <r>    -3.1575     3.3316     7.2019 </r>
       <r>    -3.0970     3.0979     7.3895 </r>
       <r>    -3.0364     2.2455     7.5254 </r>
       <r>    -2.9759     0.7401     7.5702 </r>
       <r>    -2.9153     0.4540     7.5977 </r>
       <r>    -2.8548     0.8095     7.6468 </r>
       <r>    -2.7942     0.8867     7.7004 </r>
       <r>    -2.7337     0.7653     7.7468 </r>
       <r>    -2.6731     0.8595     7.7988 </r>
       <r>    -2.6126     0.6857     7.8403 </r>
       <r>    -2.5520     0.8502     7.8918 </r>
       <r>    -2.4915     1.6833     7.9937 </r>
       <r>    -2.4309     1.9854     8.1140 </r>
       <r>    -2.3704     1.1091     8.1811 </r>
       <r>    -2.3098     0.5457     8.2142 </r>
       <r>    -2.2493     0.3663     8.2363 </r>
       <r>    -2.1887     0.4062     8.2609 </r>
       <r>    -2.1282     0.7437     8.3060 </r>
       <r>    -2.0676     0.6296     8.3441 </r>
       <r>    -2.0071     0.5946     8.3801 </r>
       <r>    -1.9465     0.4159     8.4053 </r>
       <r>    -1.8860     0.6797     8.4464 </r>
       <r>    -1.8254     2.2461     8.5824 </r>
       <r>    -1.7649     5.7580     8.9311 </r>
       <r>    -1.7043     6.1643     9.3043 </r>
       <r>    -1.6438     2.4347     9.4517 </r>
       <r>    -1.5832     2.0154     9.5738 </r>
       <r>    -1.5227     4.3677     9.8382 </r>
       <r>    -1.4621     5.6327    10.1793 </r>
       <r>    -1.4016     4.3851    10.4448 </r>
       <r>    -1.3410     4.6809    10.7282 </r>
       <r>    -1.2805     5.4713    11.0595 </r>
       <r>    -1.2199     4.1248    11.3093 </r>
       <r>    -1.1594     2.3217    11.4499 </r>
       <r>    -1.0988     0.5883    11.4855 </r>
       <r>    -1.0383     2.6833    11.6480 </r>
       <r>    -0.9777     6.7575    12.0571 </r>
       <r>    -0.9172     5.0398    12.3623 </r>
       <r>    -0.8566     1.8801    12.4761 </r>
       <r>    -0.7961     0.8041    12.5248 </r>
       <r>    -0.7355     0.1815    12.5358 </r>
       <r>    -0.6750     0.9035    12.5905 </r>
       <r>    -0.6144     2.7050    12.7543 </r>
       <r>    -0.5539     4.3411    13.0172 </r>
       <r>    -0.4933     2.8781    13.1914 </r>
       <r>    -0.4328     0.1637    13.2013 </r>
       <r>    -0.3722     0.7379    13.2460 </r>
       <r>    -0.3117     1.9105    13.3617 </r>
       <r>    -0.2511     0.8660    13.4141 </r>
       <r>    -0.1906     0.2716    13.4306 </r>
       <r>    -0.1300     2.1320    13.5597 </r>
       <r>    -0.0695     4.5419    13.8347 </r>
       <r>    -0.0089     2.7107    13.9988 </r>
       <r>     0.0516     0.5129    14.0299 </r>
       <r>     0.1122     0.6404    14.0687 </r>
       <r>     0.1727     0.6795    14.1098 </r>
       <r>     0.2333     0.1905    14.1213 </r>
       <r>     0.2938     0.4332    14.1476 </r>
       <r>     0.3544     1.0922    14.2137 </r>
       <r>     0.4149     1.4409    14.3009 </r>
       <r>     0.4755     2.5421    14.4549 </r>
       <r>     0.5360     1.9089    14.5704 </r>
       <r>     0.5966     0.2748    14.5871 </r>
       <r>     0.6571     0.1351    14.5953 </r>
       <r>     0.7177     1.1135    14.6627 </r>
       <r>     0.7782     0.9297    14.7190 </r>
       <r>     0.8388     0.3742    14.7416 </r>
       <r>     0.8993     0.3880    14.7651 </r>
       <r>     0.9599     0.9605    14.8233 </r>
       <r>     1.0204     2.9647    15.0028 </r>
       <r>     1.0810     3.2336    15.1986 </r>
       <r>     1.1415     1.9105    15.3143 </r>
       <r>     1.2021     3.9307    15.5523 </r>
       <r>     1.2626     6.2660    15.9317 </r>
       <r>     1.3232     6.6087    16.3318 </r>
       <r>     1.3837     5.2200    16.6479 </r>
       <r>     1.4443     1.1683    16.7187 </r>
       <r>     1.5048     1.2642    16.7952 </r>
       <r>     1.5654     7.2640    17.2350 </r>
       <r>     1.6259     9.5818    17.8152 </r>
       <r>     1.6865     5.2582    18.1336 </r>
       <r>     1.7470     2.1490    18.2637 </r>
       <r>     1.8076     1.6074    18.3611 </r>
       <r>     1.8681     4.7078    18.6461 </r>
       <r>     1.9287     6.8896    19.0633 </r>
       <r>     1.9892     5.4613    19.3940 </r>
       <r>     2.0498     3.0029    19.5758 </r>
       <r>     2.1103     2.7459    19.7421 </r>
       <r>     2.1709     6.2619    20.1212 </r>
       <r>     2.2314     7.5919    20.5809 </r>
       <r>     2.2920     5.7141    20.9269 </r>
       <r>     2.3525     4.1914    21.1807 </r>
       <r>     2.4131     5.3546    21.5049 </r>
       <r>     2.4736     6.8299    21.9185 </r>
       <r>     2.5342     7.5263    22.3742 </r>
       <r>     2.5947     7.4934    22.8279 </r>
       <r>     2.6553     6.6435    23.2302 </r>
       <r>     2.7158     5.2581    23.5485 </r>
       <r>     2.7764     4.6800    23.8319 </r>
       <r>     2.8369     6.1114    24.2020 </r>
       <r>     2.8975     8.7925    24.7344 </r>
       <r>     2.9580     6.4351    25.1240 </r>
       <r>     3.0186     2.4236    25.2707 </r>
       <r>     3.0791     4.0824    25.5179 </r>
       <r>     3.1397     8.5617    26.0363 </r>
       <r>     3.2002     7.8389    26.5110 </r>
       <r>     3.2608     5.3335    26.8339 </r>
       <r>     3.3213     6.2585    27.2129 </r>
       <r>     3.3819     3.9885    27.4544 </r>
       <r>     3.4424     1.7057    27.5577 </r>
       <r>     3.5030     4.4678    27.8282 </r>
       <r>     3.5635     7.6802    28.2932 </r>
       <r>     3.6241     7.6342    28.7555 </r>
       <r>     3.6846     6.3256    29.1385 </r>
       <r>     3.7452     4.7224    29.4244 </r>
       <r>     3.8057     3.7009    29.6485 </r>
       <r>     3.8663     3.1006    29.8363 </r>
       <r>     3.9268     2.5639    29.9915 </r>
       <r>     3.9874     4.1096    30.2404 </r>
       <r>     4.0479     5.6011    30.5795 </r>
       <r>     4.1085     4.5548    30.8553 </r>
       <r>     4.1690     2.5536    31.0099 </r>
       <r>     4.2296     1.3958    31.0944 </r>
       <r>     4.2901     0.6296    31.1326 </r>
       <r>     4.3507     1.5481    31.2263 </r>
       <r>     4.4112     3.2765    31.4247 </r>
       <r>     4.4718     2.4158    31.5710 </r>
       <r>     4.5323     0.6436    31.6099 </r>
       <r>     4.5929     0.7495    31.6553 </r>
       <r>     4.6534     1.6186    31.7533 </r>
       <r>     4.7140     1.3960    31.8378 </r>
       <r>     4.7745     0.9317    31.8943 </r>
       <r>     4.8351     0.8646    31.9466 </r>
       <r>     4.8956     0.2902    31.9642 </r>
       <r>     4.9562     0.2428    31.9789 </r>
       <r>     5.0167     0.3079    31.9975 </r>
       <r>     5.0773     0.0616    32.0013 </r>
       <r>     5.1378    -0.0204    32.0000 </r>
       <r>     5.1984    -0.0021    31.9999 </r>
       <r>     5.2589     0.0015    32.0000 </r>
       <r>     5.3195     0.0003    32.0000 </r>
       <r>     5.3800     0.0000    32.0000 </r>
       <r>     5.4406     0.0003    32.0000 </r>
       <r>     5.5011     0.0017    32.0001 </r>
       <r>     5.5617    -0.0023    32.0000 </r>
       <r>     5.6222    -0.0238    31.9985 </r>
       <r>     5.6828     0.0692    32.0027 </r>
       <r>     5.7433     0.2904    32.0203 </r>
       <r>     5.8039     0.2777    32.0371 </r>
       <r>     5.8644     0.1876    32.0485 </r>
       <r>     5.9250     0.3226    32.0680 </r>
       <r>     5.9855     1.4431    32.1554 </r>
       <r>     6.0461     2.1919    32.2881 </r>
       <r>     6.1066     2.0053    32.4095 </r>
       <r>     6.1672     1.5726    32.5048 </r>
       <r>     6.2277     0.9738    32.5637 </r>
       <r>     6.2883     2.0754    32.6894 </r>
       <r>     6.3488     3.2983    32.8891 </r>
       <r>     6.4094     2.6528    33.0497 </r>
       <r>     6.4699     2.1745    33.1814 </r>
       <r>     6.5305     2.7247    33.3464 </r>
       <r>     6.5910     1.7659    33.4533 </r>
       <r>     6.6516     3.1320    33.6429 </r>
       <r>     6.7121     6.4613    34.0342 </r>
       <r>     6.7727     5.3997    34.3611 </r>
       <r>     6.8332     4.6152    34.6406 </r>
       <r>     6.8938     4.0591    34.8863 </r>
       <r>     6.9543     3.1600    35.0777 </r>
       <r>     7.0149     5.5286    35.4124 </r>
       <r>     7.0754     7.0923    35.8419 </r>
       <r>     7.1360     8.3479    36.3474 </r>
       <r>     7.1965     7.3236    36.7908 </r>
       <r>     7.2571     7.0392    37.2170 </r>
       <r>     7.3176     6.4560    37.6079 </r>
       <r>     7.3782     4.8846    37.9037 </r>
       <r>     7.4387     5.4207    38.2319 </r>
       <r>     7.4993     4.5466    38.5072 </r>
       <r>     7.5598     3.8046    38.7376 </r>
       <r>     7.6204     5.9209    39.0961 </r>
       <r>     7.6809     8.6575    39.6203 </r>
       <r>     7.7415     6.5952    40.0196 </r>
       <r>     7.8020     2.7411    40.1856 </r>
       <r>     7.8626     2.4574    40.3344 </r>
       <r>     7.9231     4.3597    40.5984 </r>
       <r>     7.9837     5.4414    40.9279 </r>
       <r>     8.0442     4.3405    41.1907 </r>
       <r>     8.1048     3.1564    41.3818 </r>
       <r>     8.1653     2.7213    41.5466 </r>
       <r>     8.2259     5.2977    41.8674 </r>
       <r>     8.2864    10.5129    42.5039 </r>
       <r>     8.3470     9.9495    43.1064 </r>
       <r>     8.4075     7.6181    43.5676 </r>
       <r>     8.4681     9.6391    44.1513 </r>
       <r>     8.5286     6.4189    44.5400 </r>
       <r>     8.5892     3.0146    44.7225 </r>
       <r>     8.6497     5.0962    45.0311 </r>
       <r>     8.7103     7.4694    45.4833 </r>
       <r>     8.7708     5.2980    45.8041 </r>
       <r>     8.8314     4.3815    46.0694 </r>
       <r>     8.8919     5.8593    46.4242 </r>
       <r>     8.9525     4.0175    46.6675 </r>
       <r>     9.0130     3.1845    46.8603 </r>
       <r>     9.0736     4.3647    47.1246 </r>
       <r>     9.1341     2.4765    47.2745 </r>
       <r>     9.1947     0.3491    47.2957 </r>
       <r>     9.2552     1.3689    47.3786 </r>
       <r>     9.3158     3.1175    47.5673 </r>
       <r>     9.3763     2.9894    47.7483 </r>
       <r>     9.4369     2.1203    47.8767 </r>
       <r>     9.4974     0.9404    47.9337 </r>
       <r>     9.5580     0.0622    47.9374 </r>
       <r>     9.6185    -0.0732    47.9330 </r>
       <r>     9.6791    -0.0413    47.9305 </r>
       <r>     9.7396     0.2875    47.9479 </r>
       <r>     9.8002     0.6499    47.9872 </r>
       <r>     9.8607     0.2661    48.0034 </r>
       <r>     9.9213    -0.0454    48.0006 </r>
       <r>     9.9818    -0.0152    47.9997 </r>
       <r>    10.0424     0.0040    47.9999 </r>
       <r>    10.1029     0.0009    48.0000 </r>
       <r>    10.1635     0.0001    48.0000 </r>
       <r>    10.2240     0.0000    48.0000 </r>
       <r>    10.2846     0.0000    48.0000 </r>
       <r>    10.3451     0.0000    48.0000 </r>
       <r>    10.4057     0.0000    48.0000 </r>
       <r>    10.4662     0.0000    48.0000 </r>
       <r>    10.5268     0.0000    48.0000 </r>
       <r>    10.5873     0.0000    48.0000 </r>
       <r>    10.6479     0.0000    48.0000 </r>
       <r>    10.7084     0.0000    48.0000 </r>
       <r>    10.7690     0.0000    48.0000 </r>
      </set>
     </set>
    </array>
   </total>
  </dos>
 </calculation>
 <structure name="finalpos" >
  <crystal>
   <varray name="basis" >
    <v>       5.58674669       0.00000000       0.00000000 </v>
    <v>       0.00000000       5.58674669       0.00000000 </v>
    <v>       0.00000000       0.00000000       5.58674669 </v>
   </varray>
   <i name="volume">    174.37207729 </i>
   <varray name="rec_basis" >
    <v>       0.17899505       0.00000000       0.00000000 </v>
    <v>       0.00000000       0.17899505       0.00000000 </v>
    <v>       0.00000000       0.00000000       0.17899505 </v>
   </varray>
  </crystal>
  <varray name="positions" >
   <v>       0.00000000       0.00000000       0.00000000 </v>
   <v>       0.25000000       0.25000000       0.25000000 </v>
   <v>       0.50000000       0.50000000       0.00000000 </v>
   <v>       0.75000000       0.75000000       0.25000000 </v>
   <v>       0.50000000       0.00000000       0.50000000 </v>
   <v>       0.75000000       0.25000000       0.75000000 </v>
   <v>       0.00000000       0.50000000       0.50000000 </v>
   <v>       0.25000000       0.75000000       0.75000000 </v>
  </varray>
 </structure>
</modeling>
