<?xml version="1.0" encoding="ISO-8859-1"?>
<modeling>
 <generator>
  <i name="program" type="string">vasp </i>
  <i name="version" type="string">5.4.1  </i>
  <i name="subversion" type="string">24Jun15 (build Jul  8 2015 13:29:37) complex                          parallel </i>
  <i name="platform" type="string">FX10FRT </i>
  <i name="date" type="string">2016 02 29 </i>
  <i name="time" type="string">21:50:09 </i>
 </generator>
 <incar>
  <i type="string" name="PREC">accurate</i>
  <i type="string" name="ALGO"> Normal</i>
  <i type="int" name="ISPIN">     1</i>
  <i type="int" name="IBRION">    -1</i>
  <i name="EDIFF">      0.00010000</i>
  <i type="int" name="NSW">     0</i>
  <i type="int" name="ISIF">     2</i>
  <i name="ENCUT">    400.00000000</i>
  <i type="int" name="ISMEAR">     2</i>
  <i name="SIGMA">      0.01000000</i>
  <i type="int" name="NWRITE">     1</i>
  <v type="int" name="KPOINT_BSE">    -1     0     0     0</v>
 </incar>
 <kpoints>
  <generation param="Monkhorst-Pack">
   <v type="int" name="divisions">       8        8        8 </v>
   <v name="usershift">      0.00000000       0.00000000       0.00000000 </v>
   <v name="genvec1">      0.12500000       0.00000000       0.00000000 </v>
   <v name="genvec2">      0.00000000       0.12500000       0.00000000 </v>
   <v name="genvec3">      0.00000000       0.00000000       0.12500000 </v>
   <v name="shift">      0.50000000       0.50000000       0.50000000 </v>
  </generation>
  <varray name="kpointlist" >
   <v>       0.06250000       0.06250000       0.06250000 </v>
   <v>       0.18750000       0.06250000       0.06250000 </v>
   <v>       0.31250000       0.06250000       0.06250000 </v>
   <v>       0.43750000       0.06250000       0.06250000 </v>
   <v>      -0.43750000       0.06250000       0.06250000 </v>
   <v>      -0.31250000       0.06250000       0.06250000 </v>
   <v>      -0.18750000       0.06250000       0.06250000 </v>
   <v>      -0.06250000       0.06250000       0.06250000 </v>
   <v>       0.06250000       0.18750000       0.06250000 </v>
   <v>       0.18750000       0.18750000       0.06250000 </v>
   <v>       0.31250000       0.18750000       0.06250000 </v>
   <v>       0.43750000       0.18750000       0.06250000 </v>
   <v>      -0.43750000       0.18750000       0.06250000 </v>
   <v>      -0.31250000       0.18750000       0.06250000 </v>
   <v>      -0.18750000       0.18750000       0.06250000 </v>
   <v>      -0.06250000       0.18750000       0.06250000 </v>
   <v>       0.06250000       0.31250000       0.06250000 </v>
   <v>       0.18750000       0.31250000       0.06250000 </v>
   <v>       0.31250000       0.31250000       0.06250000 </v>
   <v>       0.43750000       0.31250000       0.06250000 </v>
   <v>      -0.43750000       0.31250000       0.06250000 </v>
   <v>      -0.31250000       0.31250000       0.06250000 </v>
   <v>      -0.18750000       0.31250000       0.06250000 </v>
   <v>      -0.06250000       0.31250000       0.06250000 </v>
   <v>       0.06250000       0.43750000       0.06250000 </v>
   <v>       0.18750000       0.43750000       0.06250000 </v>
   <v>       0.31250000       0.43750000       0.06250000 </v>
   <v>       0.43750000       0.43750000       0.06250000 </v>
   <v>      -0.43750000       0.43750000       0.06250000 </v>
   <v>      -0.31250000       0.43750000       0.06250000 </v>
   <v>      -0.18750000       0.43750000       0.06250000 </v>
   <v>      -0.06250000       0.43750000       0.06250000 </v>
   <v>       0.06250000      -0.43750000       0.06250000 </v>
   <v>       0.18750000      -0.43750000       0.06250000 </v>
   <v>       0.31250000      -0.43750000       0.06250000 </v>
   <v>       0.43750000      -0.43750000       0.06250000 </v>
   <v>      -0.43750000      -0.43750000       0.06250000 </v>
   <v>      -0.31250000      -0.43750000       0.06250000 </v>
   <v>      -0.18750000      -0.43750000       0.06250000 </v>
   <v>      -0.06250000      -0.43750000       0.06250000 </v>
   <v>       0.06250000      -0.31250000       0.06250000 </v>
   <v>       0.18750000      -0.31250000       0.06250000 </v>
   <v>       0.31250000      -0.31250000       0.06250000 </v>
   <v>       0.43750000      -0.31250000       0.06250000 </v>
   <v>      -0.43750000      -0.31250000       0.06250000 </v>
   <v>      -0.31250000      -0.31250000       0.06250000 </v>
   <v>      -0.18750000      -0.31250000       0.06250000 </v>
   <v>      -0.06250000      -0.31250000       0.06250000 </v>
   <v>       0.06250000      -0.18750000       0.06250000 </v>
   <v>       0.18750000      -0.18750000       0.06250000 </v>
   <v>       0.31250000      -0.18750000       0.06250000 </v>
   <v>       0.43750000      -0.18750000       0.06250000 </v>
   <v>      -0.43750000      -0.18750000       0.06250000 </v>
   <v>      -0.31250000      -0.18750000       0.06250000 </v>
   <v>      -0.18750000      -0.18750000       0.06250000 </v>
   <v>      -0.06250000      -0.18750000       0.06250000 </v>
   <v>       0.06250000      -0.06250000       0.06250000 </v>
   <v>       0.18750000      -0.06250000       0.06250000 </v>
   <v>       0.31250000      -0.06250000       0.06250000 </v>
   <v>       0.43750000      -0.06250000       0.06250000 </v>
   <v>      -0.43750000      -0.06250000       0.06250000 </v>
   <v>      -0.31250000      -0.06250000       0.06250000 </v>
   <v>      -0.18750000      -0.06250000       0.06250000 </v>
   <v>      -0.06250000      -0.06250000       0.06250000 </v>
   <v>       0.06250000       0.06250000       0.18750000 </v>
   <v>       0.18750000       0.06250000       0.18750000 </v>
   <v>       0.31250000       0.06250000       0.18750000 </v>
   <v>       0.43750000       0.06250000       0.18750000 </v>
   <v>      -0.43750000       0.06250000       0.18750000 </v>
   <v>      -0.31250000       0.06250000       0.18750000 </v>
   <v>      -0.18750000       0.06250000       0.18750000 </v>
   <v>      -0.06250000       0.06250000       0.18750000 </v>
   <v>       0.06250000       0.18750000       0.18750000 </v>
   <v>       0.18750000       0.18750000       0.18750000 </v>
   <v>       0.31250000       0.18750000       0.18750000 </v>
   <v>       0.43750000       0.18750000       0.18750000 </v>
   <v>      -0.43750000       0.18750000       0.18750000 </v>
   <v>      -0.31250000       0.18750000       0.18750000 </v>
   <v>      -0.18750000       0.18750000       0.18750000 </v>
   <v>      -0.06250000       0.18750000       0.18750000 </v>
   <v>       0.06250000       0.31250000       0.18750000 </v>
   <v>       0.18750000       0.31250000       0.18750000 </v>
   <v>       0.31250000       0.31250000       0.18750000 </v>
   <v>       0.43750000       0.31250000       0.18750000 </v>
   <v>      -0.43750000       0.31250000       0.18750000 </v>
   <v>      -0.31250000       0.31250000       0.18750000 </v>
   <v>      -0.18750000       0.31250000       0.18750000 </v>
   <v>      -0.06250000       0.31250000       0.18750000 </v>
   <v>       0.06250000       0.43750000       0.18750000 </v>
   <v>       0.18750000       0.43750000       0.18750000 </v>
   <v>       0.31250000       0.43750000       0.18750000 </v>
   <v>       0.43750000       0.43750000       0.18750000 </v>
   <v>      -0.43750000       0.43750000       0.18750000 </v>
   <v>      -0.31250000       0.43750000       0.18750000 </v>
   <v>      -0.18750000       0.43750000       0.18750000 </v>
   <v>      -0.06250000       0.43750000       0.18750000 </v>
   <v>       0.06250000      -0.43750000       0.18750000 </v>
   <v>       0.18750000      -0.43750000       0.18750000 </v>
   <v>       0.31250000      -0.43750000       0.18750000 </v>
   <v>       0.43750000      -0.43750000       0.18750000 </v>
   <v>      -0.43750000      -0.43750000       0.18750000 </v>
   <v>      -0.31250000      -0.43750000       0.18750000 </v>
   <v>      -0.18750000      -0.43750000       0.18750000 </v>
   <v>      -0.06250000      -0.43750000       0.18750000 </v>
   <v>       0.06250000      -0.31250000       0.18750000 </v>
   <v>       0.18750000      -0.31250000       0.18750000 </v>
   <v>       0.31250000      -0.31250000       0.18750000 </v>
   <v>       0.43750000      -0.31250000       0.18750000 </v>
   <v>      -0.43750000      -0.31250000       0.18750000 </v>
   <v>      -0.31250000      -0.31250000       0.18750000 </v>
   <v>      -0.18750000      -0.31250000       0.18750000 </v>
   <v>      -0.06250000      -0.31250000       0.18750000 </v>
   <v>       0.06250000      -0.18750000       0.18750000 </v>
   <v>       0.18750000      -0.18750000       0.18750000 </v>
   <v>       0.31250000      -0.18750000       0.18750000 </v>
   <v>       0.43750000      -0.18750000       0.18750000 </v>
   <v>      -0.43750000      -0.18750000       0.18750000 </v>
   <v>      -0.31250000      -0.18750000       0.18750000 </v>
   <v>      -0.18750000      -0.18750000       0.18750000 </v>
   <v>      -0.06250000      -0.18750000       0.18750000 </v>
   <v>       0.06250000      -0.06250000       0.18750000 </v>
   <v>       0.18750000      -0.06250000       0.18750000 </v>
   <v>       0.31250000      -0.06250000       0.18750000 </v>
   <v>       0.43750000      -0.06250000       0.18750000 </v>
   <v>      -0.43750000      -0.06250000       0.18750000 </v>
   <v>      -0.31250000      -0.06250000       0.18750000 </v>
   <v>      -0.18750000      -0.06250000       0.18750000 </v>
   <v>      -0.06250000      -0.06250000       0.18750000 </v>
   <v>       0.06250000       0.06250000       0.31250000 </v>
   <v>       0.18750000       0.06250000       0.31250000 </v>
   <v>       0.31250000       0.06250000       0.31250000 </v>
   <v>       0.43750000       0.06250000       0.31250000 </v>
   <v>      -0.43750000       0.06250000       0.31250000 </v>
   <v>      -0.31250000       0.06250000       0.31250000 </v>
   <v>      -0.18750000       0.06250000       0.31250000 </v>
   <v>      -0.06250000       0.06250000       0.31250000 </v>
   <v>       0.06250000       0.18750000       0.31250000 </v>
   <v>       0.18750000       0.18750000       0.31250000 </v>
   <v>       0.31250000       0.18750000       0.31250000 </v>
   <v>       0.43750000       0.18750000       0.31250000 </v>
   <v>      -0.43750000       0.18750000       0.31250000 </v>
   <v>      -0.31250000       0.18750000       0.31250000 </v>
   <v>      -0.18750000       0.18750000       0.31250000 </v>
   <v>      -0.06250000       0.18750000       0.31250000 </v>
   <v>       0.06250000       0.31250000       0.31250000 </v>
   <v>       0.18750000       0.31250000       0.31250000 </v>
   <v>       0.31250000       0.31250000       0.31250000 </v>
   <v>       0.43750000       0.31250000       0.31250000 </v>
   <v>      -0.43750000       0.31250000       0.31250000 </v>
   <v>      -0.31250000       0.31250000       0.31250000 </v>
   <v>      -0.18750000       0.31250000       0.31250000 </v>
   <v>      -0.06250000       0.31250000       0.31250000 </v>
   <v>       0.06250000       0.43750000       0.31250000 </v>
   <v>       0.18750000       0.43750000       0.31250000 </v>
   <v>       0.31250000       0.43750000       0.31250000 </v>
   <v>       0.43750000       0.43750000       0.31250000 </v>
   <v>      -0.43750000       0.43750000       0.31250000 </v>
   <v>      -0.31250000       0.43750000       0.31250000 </v>
   <v>      -0.18750000       0.43750000       0.31250000 </v>
   <v>      -0.06250000       0.43750000       0.31250000 </v>
   <v>       0.06250000      -0.43750000       0.31250000 </v>
   <v>       0.18750000      -0.43750000       0.31250000 </v>
   <v>       0.31250000      -0.43750000       0.31250000 </v>
   <v>       0.43750000      -0.43750000       0.31250000 </v>
   <v>      -0.43750000      -0.43750000       0.31250000 </v>
   <v>      -0.31250000      -0.43750000       0.31250000 </v>
   <v>      -0.18750000      -0.43750000       0.31250000 </v>
   <v>      -0.06250000      -0.43750000       0.31250000 </v>
   <v>       0.06250000      -0.31250000       0.31250000 </v>
   <v>       0.18750000      -0.31250000       0.31250000 </v>
   <v>       0.31250000      -0.31250000       0.31250000 </v>
   <v>       0.43750000      -0.31250000       0.31250000 </v>
   <v>      -0.43750000      -0.31250000       0.31250000 </v>
   <v>      -0.31250000      -0.31250000       0.31250000 </v>
   <v>      -0.18750000      -0.31250000       0.31250000 </v>
   <v>      -0.06250000      -0.31250000       0.31250000 </v>
   <v>       0.06250000      -0.18750000       0.31250000 </v>
   <v>       0.18750000      -0.18750000       0.31250000 </v>
   <v>       0.31250000      -0.18750000       0.31250000 </v>
   <v>       0.43750000      -0.18750000       0.31250000 </v>
   <v>      -0.43750000      -0.18750000       0.31250000 </v>
   <v>      -0.31250000      -0.18750000       0.31250000 </v>
   <v>      -0.18750000      -0.18750000       0.31250000 </v>
   <v>      -0.06250000      -0.18750000       0.31250000 </v>
   <v>       0.06250000      -0.06250000       0.31250000 </v>
   <v>       0.18750000      -0.06250000       0.31250000 </v>
   <v>       0.31250000      -0.06250000       0.31250000 </v>
   <v>       0.43750000      -0.06250000       0.31250000 </v>
   <v>      -0.43750000      -0.06250000       0.31250000 </v>
   <v>      -0.31250000      -0.06250000       0.31250000 </v>
   <v>      -0.18750000      -0.06250000       0.31250000 </v>
   <v>      -0.06250000      -0.06250000       0.31250000 </v>
   <v>       0.06250000       0.06250000       0.43750000 </v>
   <v>       0.18750000       0.06250000       0.43750000 </v>
   <v>       0.31250000       0.06250000       0.43750000 </v>
   <v>       0.43750000       0.06250000       0.43750000 </v>
   <v>      -0.43750000       0.06250000       0.43750000 </v>
   <v>      -0.31250000       0.06250000       0.43750000 </v>
   <v>      -0.18750000       0.06250000       0.43750000 </v>
   <v>      -0.06250000       0.06250000       0.43750000 </v>
   <v>       0.06250000       0.18750000       0.43750000 </v>
   <v>       0.18750000       0.18750000       0.43750000 </v>
   <v>       0.31250000       0.18750000       0.43750000 </v>
   <v>       0.43750000       0.18750000       0.43750000 </v>
   <v>      -0.43750000       0.18750000       0.43750000 </v>
   <v>      -0.31250000       0.18750000       0.43750000 </v>
   <v>      -0.18750000       0.18750000       0.43750000 </v>
   <v>      -0.06250000       0.18750000       0.43750000 </v>
   <v>       0.06250000       0.31250000       0.43750000 </v>
   <v>       0.18750000       0.31250000       0.43750000 </v>
   <v>       0.31250000       0.31250000       0.43750000 </v>
   <v>       0.43750000       0.31250000       0.43750000 </v>
   <v>      -0.43750000       0.31250000       0.43750000 </v>
   <v>      -0.31250000       0.31250000       0.43750000 </v>
   <v>      -0.18750000       0.31250000       0.43750000 </v>
   <v>      -0.06250000       0.31250000       0.43750000 </v>
   <v>       0.06250000       0.43750000       0.43750000 </v>
   <v>       0.18750000       0.43750000       0.43750000 </v>
   <v>       0.31250000       0.43750000       0.43750000 </v>
   <v>       0.43750000       0.43750000       0.43750000 </v>
   <v>      -0.43750000       0.43750000       0.43750000 </v>
   <v>      -0.31250000       0.43750000       0.43750000 </v>
   <v>      -0.18750000       0.43750000       0.43750000 </v>
   <v>      -0.06250000       0.43750000       0.43750000 </v>
   <v>       0.06250000      -0.43750000       0.43750000 </v>
   <v>       0.18750000      -0.43750000       0.43750000 </v>
   <v>       0.31250000      -0.43750000       0.43750000 </v>
   <v>       0.43750000      -0.43750000       0.43750000 </v>
   <v>      -0.43750000      -0.43750000       0.43750000 </v>
   <v>      -0.31250000      -0.43750000       0.43750000 </v>
   <v>      -0.18750000      -0.43750000       0.43750000 </v>
   <v>      -0.06250000      -0.43750000       0.43750000 </v>
   <v>       0.06250000      -0.31250000       0.43750000 </v>
   <v>       0.18750000      -0.31250000       0.43750000 </v>
   <v>       0.31250000      -0.31250000       0.43750000 </v>
   <v>       0.43750000      -0.31250000       0.43750000 </v>
   <v>      -0.43750000      -0.31250000       0.43750000 </v>
   <v>      -0.31250000      -0.31250000       0.43750000 </v>
   <v>      -0.18750000      -0.31250000       0.43750000 </v>
   <v>      -0.06250000      -0.31250000       0.43750000 </v>
   <v>       0.06250000      -0.18750000       0.43750000 </v>
   <v>       0.18750000      -0.18750000       0.43750000 </v>
   <v>       0.31250000      -0.18750000       0.43750000 </v>
   <v>       0.43750000      -0.18750000       0.43750000 </v>
   <v>      -0.43750000      -0.18750000       0.43750000 </v>
   <v>      -0.31250000      -0.18750000       0.43750000 </v>
   <v>      -0.18750000      -0.18750000       0.43750000 </v>
   <v>      -0.06250000      -0.18750000       0.43750000 </v>
   <v>       0.06250000      -0.06250000       0.43750000 </v>
   <v>       0.18750000      -0.06250000       0.43750000 </v>
   <v>       0.31250000      -0.06250000       0.43750000 </v>
   <v>       0.43750000      -0.06250000       0.43750000 </v>
   <v>      -0.43750000      -0.06250000       0.43750000 </v>
   <v>      -0.31250000      -0.06250000       0.43750000 </v>
   <v>      -0.18750000      -0.06250000       0.43750000 </v>
   <v>      -0.06250000      -0.06250000       0.43750000 </v>
  </varray>
  <varray name="weights" >
   <v>       0.00390625 </v>
   <v>       0.00390625 </v>
   <v>       0.00390625 </v>
   <v>       0.00390625 </v>
   <v>       0.00390625 </v>
   <v>       0.00390625 </v>
   <v>       0.00390625 </v>
   <v>       0.00390625 </v>
   <v>       0.00390625 </v>
   <v>       0.00390625 </v>
   <v>       0.00390625 </v>
   <v>       0.00390625 </v>
   <v>       0.00390625 </v>
   <v>       0.00390625 </v>
   <v>       0.00390625 </v>
   <v>       0.00390625 </v>
   <v>       0.00390625 </v>
   <v>       0.00390625 </v>
   <v>       0.00390625 </v>
   <v>       0.00390625 </v>
   <v>       0.00390625 </v>
   <v>       0.00390625 </v>
   <v>       0.00390625 </v>
   <v>       0.00390625 </v>
   <v>       0.00390625 </v>
   <v>       0.00390625 </v>
   <v>       0.00390625 </v>
   <v>       0.00390625 </v>
   <v>       0.00390625 </v>
   <v>       0.00390625 </v>
   <v>       0.00390625 </v>
   <v>       0.00390625 </v>
   <v>       0.00390625 </v>
   <v>       0.00390625 </v>
   <v>       0.00390625 </v>
   <v>       0.00390625 </v>
   <v>       0.00390625 </v>
   <v>       0.00390625 </v>
   <v>       0.00390625 </v>
   <v>       0.00390625 </v>
   <v>       0.00390625 </v>
   <v>       0.00390625 </v>
   <v>       0.00390625 </v>
   <v>       0.00390625 </v>
   <v>       0.00390625 </v>
   <v>       0.00390625 </v>
   <v>       0.00390625 </v>
   <v>       0.00390625 </v>
   <v>       0.00390625 </v>
   <v>       0.00390625 </v>
   <v>       0.00390625 </v>
   <v>       0.00390625 </v>
   <v>       0.00390625 </v>
   <v>       0.00390625 </v>
   <v>       0.00390625 </v>
   <v>       0.00390625 </v>
   <v>       0.00390625 </v>
   <v>       0.00390625 </v>
   <v>       0.00390625 </v>
   <v>       0.00390625 </v>
   <v>       0.00390625 </v>
   <v>       0.00390625 </v>
   <v>       0.00390625 </v>
   <v>       0.00390625 </v>
   <v>       0.00390625 </v>
   <v>       0.00390625 </v>
   <v>       0.00390625 </v>
   <v>       0.00390625 </v>
   <v>       0.00390625 </v>
   <v>       0.00390625 </v>
   <v>       0.00390625 </v>
   <v>       0.00390625 </v>
   <v>       0.00390625 </v>
   <v>       0.00390625 </v>
   <v>       0.00390625 </v>
   <v>       0.00390625 </v>
   <v>       0.00390625 </v>
   <v>       0.00390625 </v>
   <v>       0.00390625 </v>
   <v>       0.00390625 </v>
   <v>       0.00390625 </v>
   <v>       0.00390625 </v>
   <v>       0.00390625 </v>
   <v>       0.00390625 </v>
   <v>       0.00390625 </v>
   <v>       0.00390625 </v>
   <v>       0.00390625 </v>
   <v>       0.00390625 </v>
   <v>       0.00390625 </v>
   <v>       0.00390625 </v>
   <v>       0.00390625 </v>
   <v>       0.00390625 </v>
   <v>       0.00390625 </v>
   <v>       0.00390625 </v>
   <v>       0.00390625 </v>
   <v>       0.00390625 </v>
   <v>       0.00390625 </v>
   <v>       0.00390625 </v>
   <v>       0.00390625 </v>
   <v>       0.00390625 </v>
   <v>       0.00390625 </v>
   <v>       0.00390625 </v>
   <v>       0.00390625 </v>
   <v>       0.00390625 </v>
   <v>       0.00390625 </v>
   <v>       0.00390625 </v>
   <v>       0.00390625 </v>
   <v>       0.00390625 </v>
   <v>       0.00390625 </v>
   <v>       0.00390625 </v>
   <v>       0.00390625 </v>
   <v>       0.00390625 </v>
   <v>       0.00390625 </v>
   <v>       0.00390625 </v>
   <v>       0.00390625 </v>
   <v>       0.00390625 </v>
   <v>       0.00390625 </v>
   <v>       0.00390625 </v>
   <v>       0.00390625 </v>
   <v>       0.00390625 </v>
   <v>       0.00390625 </v>
   <v>       0.00390625 </v>
   <v>       0.00390625 </v>
   <v>       0.00390625 </v>
   <v>       0.00390625 </v>
   <v>       0.00390625 </v>
   <v>       0.00390625 </v>
   <v>       0.00390625 </v>
   <v>       0.00390625 </v>
   <v>       0.00390625 </v>
   <v>       0.00390625 </v>
   <v>       0.00390625 </v>
   <v>       0.00390625 </v>
   <v>       0.00390625 </v>
   <v>       0.00390625 </v>
   <v>       0.00390625 </v>
   <v>       0.00390625 </v>
   <v>       0.00390625 </v>
   <v>       0.00390625 </v>
   <v>       0.00390625 </v>
   <v>       0.00390625 </v>
   <v>       0.00390625 </v>
   <v>       0.00390625 </v>
   <v>       0.00390625 </v>
   <v>       0.00390625 </v>
   <v>       0.00390625 </v>
   <v>       0.00390625 </v>
   <v>       0.00390625 </v>
   <v>       0.00390625 </v>
   <v>       0.00390625 </v>
   <v>       0.00390625 </v>
   <v>       0.00390625 </v>
   <v>       0.00390625 </v>
   <v>       0.00390625 </v>
   <v>       0.00390625 </v>
   <v>       0.00390625 </v>
   <v>       0.00390625 </v>
   <v>       0.00390625 </v>
   <v>       0.00390625 </v>
   <v>       0.00390625 </v>
   <v>       0.00390625 </v>
   <v>       0.00390625 </v>
   <v>       0.00390625 </v>
   <v>       0.00390625 </v>
   <v>       0.00390625 </v>
   <v>       0.00390625 </v>
   <v>       0.00390625 </v>
   <v>       0.00390625 </v>
   <v>       0.00390625 </v>
   <v>       0.00390625 </v>
   <v>       0.00390625 </v>
   <v>       0.00390625 </v>
   <v>       0.00390625 </v>
   <v>       0.00390625 </v>
   <v>       0.00390625 </v>
   <v>       0.00390625 </v>
   <v>       0.00390625 </v>
   <v>       0.00390625 </v>
   <v>       0.00390625 </v>
   <v>       0.00390625 </v>
   <v>       0.00390625 </v>
   <v>       0.00390625 </v>
   <v>       0.00390625 </v>
   <v>       0.00390625 </v>
   <v>       0.00390625 </v>
   <v>       0.00390625 </v>
   <v>       0.00390625 </v>
   <v>       0.00390625 </v>
   <v>       0.00390625 </v>
   <v>       0.00390625 </v>
   <v>       0.00390625 </v>
   <v>       0.00390625 </v>
   <v>       0.00390625 </v>
   <v>       0.00390625 </v>
   <v>       0.00390625 </v>
   <v>       0.00390625 </v>
   <v>       0.00390625 </v>
   <v>       0.00390625 </v>
   <v>       0.00390625 </v>
   <v>       0.00390625 </v>
   <v>       0.00390625 </v>
   <v>       0.00390625 </v>
   <v>       0.00390625 </v>
   <v>       0.00390625 </v>
   <v>       0.00390625 </v>
   <v>       0.00390625 </v>
   <v>       0.00390625 </v>
   <v>       0.00390625 </v>
   <v>       0.00390625 </v>
   <v>       0.00390625 </v>
   <v>       0.00390625 </v>
   <v>       0.00390625 </v>
   <v>       0.00390625 </v>
   <v>       0.00390625 </v>
   <v>       0.00390625 </v>
   <v>       0.00390625 </v>
   <v>       0.00390625 </v>
   <v>       0.00390625 </v>
   <v>       0.00390625 </v>
   <v>       0.00390625 </v>
   <v>       0.00390625 </v>
   <v>       0.00390625 </v>
   <v>       0.00390625 </v>
   <v>       0.00390625 </v>
   <v>       0.00390625 </v>
   <v>       0.00390625 </v>
   <v>       0.00390625 </v>
   <v>       0.00390625 </v>
   <v>       0.00390625 </v>
   <v>       0.00390625 </v>
   <v>       0.00390625 </v>
   <v>       0.00390625 </v>
   <v>       0.00390625 </v>
   <v>       0.00390625 </v>
   <v>       0.00390625 </v>
   <v>       0.00390625 </v>
   <v>       0.00390625 </v>
   <v>       0.00390625 </v>
   <v>       0.00390625 </v>
   <v>       0.00390625 </v>
   <v>       0.00390625 </v>
   <v>       0.00390625 </v>
   <v>       0.00390625 </v>
   <v>       0.00390625 </v>
   <v>       0.00390625 </v>
   <v>       0.00390625 </v>
   <v>       0.00390625 </v>
   <v>       0.00390625 </v>
   <v>       0.00390625 </v>
   <v>       0.00390625 </v>
   <v>       0.00390625 </v>
   <v>       0.00390625 </v>
   <v>       0.00390625 </v>
   <v>       0.00390625 </v>
   <v>       0.00390625 </v>
   <v>       0.00390625 </v>
  </varray>
 </kpoints>
 <parameters>
  <separator name="general" >
   <i type="string" name="SYSTEM">unknown system</i>
   <i type="logical" name="LCOMPAT"> F  </i>
  </separator>
  <separator name="electronic" >
   <i type="string" name="PREC">accura</i>
   <i name="ENMAX">    400.00000000</i>
   <i name="ENAUG">    322.06900000</i>
   <i name="EDIFF">      0.00010000</i>
   <i type="int" name="IALGO">    38</i>
   <i type="int" name="IWAVPR">    10</i>
   <i type="int" name="NBANDS">    24</i>
   <i name="NELECT">     32.00000000</i>
   <i type="int" name="TURBO">     0</i>
   <i type="int" name="IRESTART">     0</i>
   <i type="int" name="NREBOOT">     0</i>
   <i type="int" name="NMIN">     0</i>
   <i name="EREF">      0.00000000</i>
   <separator name="electronic smearing" >
    <i type="int" name="ISMEAR">     2</i>
    <i name="SIGMA">      0.01000000</i>
    <i name="KSPACING">      0.50000000</i>
    <i type="logical" name="KGAMMA"> T  </i>
   </separator>
   <separator name="electronic projectors" >
    <i type="logical" name="LREAL"> F  </i>
    <v name="ROPT">      0.00000000</v>
    <i type="int" name="LMAXPAW">  -100</i>
    <i type="int" name="LMAXMIX">     2</i>
    <i type="logical" name="NLSPLINE"> F  </i>
   </separator>
   <separator name="electronic startup" >
    <i type="int" name="ISTART">     0</i>
    <i type="int" name="ICHARG">     2</i>
    <i type="int" name="INIWAV">     1</i>
   </separator>
   <separator name="electronic spin" >
    <i type="int" name="ISPIN">     1</i>
    <i type="logical" name="LNONCOLLINEAR"> F  </i>
    <v name="MAGMOM">      1.00000000      1.00000000      1.00000000      1.00000000      1.00000000      1.00000000      1.00000000      1.00000000</v>
    <i name="NUPDOWN">     -1.00000000</i>
    <i type="logical" name="LSORBIT"> F  </i>
    <v name="SAXIS">      0.00000000      0.00000000      1.00000000</v>
    <i type="logical" name="LSPIRAL"> F  </i>
    <v name="QSPIRAL">      0.00000000      0.00000000      0.00000000</v>
    <i type="logical" name="LZEROZ"> F  </i>
   </separator>
   <separator name="electronic exchange-correlation" >
    <i type="logical" name="LASPH"> F  </i>
    <i type="logical" name="LMETAGGA"> F  </i>
   </separator>
   <separator name="electronic convergence" >
    <i type="int" name="NELM">    60</i>
    <i type="int" name="NELMDL">    -5</i>
    <i type="int" name="NELMIN">     2</i>
    <i name="ENINI">    400.00000000</i>
    <separator name="electronic convergence detail" >
     <i type="logical" name="LDIAG"> T  </i>
     <i type="logical" name="LSUBROT"> F  </i>
     <i name="WEIMIN">      0.00000000</i>
     <i name="EBREAK">      0.00000104</i>
     <i name="DEPER">      0.30000000</i>
     <i type="int" name="NRMM">     4</i>
     <i name="TIME">      0.40000000</i>
    </separator>
   </separator>
   <separator name="electronic mixer" >
    <i name="AMIX">      0.40000000</i>
    <i name="BMIX">      1.00000000</i>
    <i name="AMIN">      0.10000000</i>
    <i name="AMIX_MAG">      1.60000000</i>
    <i name="BMIX_MAG">      1.00000000</i>
    <separator name="electronic mixer details" >
     <i type="int" name="IMIX">     4</i>
     <i type="logical" name="MIXFIRST"> F  </i>
     <i type="int" name="MAXMIX">   -45</i>
     <i name="WC">    100.00000000</i>
     <i type="int" name="INIMIX">     1</i>
     <i type="int" name="MIXPRE">     1</i>
     <i type="int" name="MREMOVE">     5</i>
    </separator>
   </separator>
   <separator name="electronic dipolcorrection" >
    <i type="logical" name="LDIPOL"> F  </i>
    <i type="logical" name="LMONO"> F  </i>
    <i type="int" name="IDIPOL">     0</i>
    <i name="EPSILON">      1.00000000</i>
    <v name="DIPOL">   -100.00000000   -100.00000000   -100.00000000</v>
    <i name="EFIELD">      0.00000000</i>
   </separator>
  </separator>
  <separator name="grids" >
   <i type="int" name="NGX">    36</i>
   <i type="int" name="NGY">    36</i>
   <i type="int" name="NGZ">    36</i>
   <i type="int" name="NGXF">    72</i>
   <i type="int" name="NGYF">    72</i>
   <i type="int" name="NGZF">    72</i>
   <i type="logical" name="ADDGRID"> F  </i>
  </separator>
  <separator name="ionic" >
   <i type="int" name="NSW">     0</i>
   <i type="int" name="IBRION">    -1</i>
   <i type="int" name="ISIF">     2</i>
   <i name="PSTRESS">      0.00000000</i>
   <i name="EDIFFG">      0.00100000</i>
   <i type="int" name="NFREE">     0</i>
   <i name="POTIM">      0.50000000</i>
   <i name="SMASS">     -3.00000000</i>
   <i name="SCALEE">      1.00000000</i>
  </separator>
  <separator name="ionic md" >
   <i name="TEBEG">      0.00010000</i>
   <i name="TEEND">      0.00010000</i>
   <i type="int" name="NBLOCK">     1</i>
   <i type="int" name="KBLOCK">     1</i>
   <i type="int" name="NPACO">   256</i>
   <i name="APACO">     16.00000000</i>
  </separator>
  <separator name="symmetry" >
   <i type="int" name="ISYM">     2</i>
   <i name="SYMPREC">      0.00001000</i>
  </separator>
  <separator name="dos" >
   <i type="logical" name="LORBIT"> F  </i>
   <v name="RWIGS">     -1.00000000</v>
   <i type="int" name="NEDOS">   301</i>
   <i name="EMIN">     10.00000000</i>
   <i name="EMAX">    -10.00000000</i>
   <i name="EFERMI">      0.00000000</i>
  </separator>
  <separator name="writing" >
   <i type="int" name="NWRITE">     1</i>
   <i type="logical" name="LWAVE"> T  </i>
   <i type="logical" name="LCHARG"> T  </i>
   <i type="logical" name="LPARD"> F  </i>
   <i type="logical" name="LVTOT"> F  </i>
   <i type="logical" name="LVHAR"> F  </i>
   <i type="logical" name="LELF"> F  </i>
   <i type="logical" name="LOPTICS"> F  </i>
   <v name="STM">      0.00000000      0.00000000      0.00000000      0.00000000      0.00000000      0.00000000      0.00000000</v>
  </separator>
  <separator name="performance" >
   <i type="int" name="NPAR">     8</i>
   <i type="int" name="NSIM">     4</i>
   <i type="int" name="NBLK">    -1</i>
   <i type="logical" name="LPLANE"> T  </i>
   <i type="logical" name="LSCALAPACK"> T  </i>
   <i type="logical" name="LSCAAWARE"> F  </i>
   <i type="logical" name="LSCALU"> F  </i>
   <i type="logical" name="LASYNC"> F  </i>
   <i type="logical" name="LORBITALREAL"> F  </i>
  </separator>
  <separator name="miscellaneous" >
   <i type="int" name="IDIOT">     3</i>
   <i type="logical" name="LMUSIC"> F  </i>
   <v name="POMASS">     28.08500000</v>
   <v name="DARWINR">      0.00000000</v>
   <v name="DARWINV">      1.00000000</v>
   <i type="logical" name="LCORR"> T  </i>
  </separator>
  <i type="logical" name="GGA_COMPAT"> T  </i>
  <i type="logical" name="LBERRY"> F  </i>
  <i type="int" name="ICORELEVEL">     0</i>
  <i type="logical" name="LDAU"> F  </i>
  <i type="int" name="I_CONSTRAINED_M">     0</i>
  <separator name="electronic exchange-correlation" >
   <i type="string" name="GGA">--</i>
   <i type="int" name="VOSKOWN">     0</i>
   <i type="logical" name="LHFCALC"> F  </i>
   <i type="string" name="PRECFOCK"></i>
   <i type="logical" name="LSYMGRAD"> F  </i>
   <i type="logical" name="LHFONE"> F  </i>
   <i type="logical" name="LRHFCALC"> F  </i>
   <i type="logical" name="LTHOMAS"> F  </i>
   <i type="logical" name="LMODELHF"> F  </i>
   <i name="ENCUT4O">     -1.00000000</i>
   <i type="int" name="EXXOEP">     0</i>
   <i type="int" name="FOURORBIT">     0</i>
   <i name="AEXX">      0.00000000</i>
   <i name="HFALPHA">      0.00000000</i>
   <i name="MCALPHA">      0.00000000</i>
   <i name="ALDAX">      1.00000000</i>
   <i name="AGGAX">      1.00000000</i>
   <i name="ALDAC">      1.00000000</i>
   <i name="AGGAC">      1.00000000</i>
   <i type="int" name="NKREDX">     1</i>
   <i type="int" name="NKREDY">     1</i>
   <i type="int" name="NKREDZ">     1</i>
   <i type="logical" name="SHIFTRED"> F  </i>
   <i type="logical" name="ODDONLY"> F  </i>
   <i type="logical" name="EVENONLY"> F  </i>
   <i type="int" name="LMAXFOCK">     0</i>
   <i type="int" name="NMAXFOCKAE">     0</i>
   <i type="logical" name="LFOCKAEDFT"> F  </i>
   <i name="HFSCREEN">      0.00000000</i>
   <i name="HFSCREENC">      0.00000000</i>
   <i type="int" name="NBANDSGWLOW">     0</i>
  </separator>
  <separator name="vdW DFT" >
   <i type="logical" name="LUSE_VDW"> F  </i>
   <i name="Zab_VDW">     -0.84910000</i>
   <i name="PARAM1">      0.12340000</i>
   <i name="PARAM2">      1.00000000</i>
   <i name="PARAM3">      0.00000000</i>
  </separator>
  <separator name="model GW" >
   <i type="int" name="MODEL_GW">     0</i>
   <i name="MODEL_EPS0">     12.26874997</i>
   <i name="MODEL_ALPHA">      1.00000000</i>
  </separator>
  <separator name="linear response parameters" >
   <i type="logical" name="LEPSILON"> F  </i>
   <i type="logical" name="LRPA"> F  </i>
   <i type="logical" name="LNABLA"> F  </i>
   <i type="logical" name="LVEL"> F  </i>
   <i type="int" name="KINTER">     0</i>
   <i name="CSHIFT">      0.10000000</i>
   <i name="OMEGAMAX">     -1.00000000</i>
   <i name="DEG_THRESHOLD">      0.00200000</i>
  </separator>
  <separator name="orbital magnetization" >
   <i type="logical" name="NUCIND"> F  </i>
   <v name="MAGPOS">      0.00000000      0.00000000      0.00000000</v>
   <i type="logical" name="LNICSALL"> T  </i>
   <i type="logical" name="ORBITALMAG"> F  </i>
   <i type="logical" name="LMAGBLOCH"> F  </i>
   <i type="logical" name="LCHIMAG"> F  </i>
   <i type="logical" name="LGAUGE"> T  </i>
   <i type="int" name="MAGATOM">     0</i>
   <v name="MAGDIPOL">      0.00000000      0.00000000      0.00000000</v>
   <v name="AVECCONST">      0.00000000      0.00000000      0.00000000</v>
  </separator>
  <separator name="response functions" >
   <i type="logical" name="LADDER"> F  </i>
   <i type="logical" name="LFXC"> F  </i>
   <i type="logical" name="LHARTREE"> T  </i>
   <i type="int" name="IBSE">     0</i>
   <v type="int" name="KPOINT">    -1     0     0     0</v>
   <i type="logical" name="LTCTE"> F  </i>
   <i type="logical" name="LTETE"> F  </i>
   <i type="logical" name="LTRIPLET"> F  </i>
   <i type="logical" name="LFXCEPS"> F  </i>
   <i type="logical" name="LFXHEG"> F  </i>
   <i type="int" name="NATURALO">     0</i>
   <i type="logical" name="L2ORDER"> F  </i>
   <i type="logical" name="LUSEW"> F  </i>
   <i name="ENCUTGW">     -2.00000000</i>
   <i name="ENCUTGWSOFT">     -2.00000000</i>
   <i name="ENCUTLF">     -1.00000000</i>
   <i type="int" name="LMAXMP2">    -1</i>
   <i name="SCISSOR">      0.00000000</i>
   <i type="int" name="NOMEGA">     0</i>
   <i type="int" name="NOMEGAR">     0</i>
   <i type="int" name="NBANDSGW">    -1</i>
   <i type="int" name="NBANDSO">    -1</i>
   <i type="int" name="NBANDSV">    -1</i>
   <i type="int" name="NELM">     1</i>
   <i type="int" name="NELMHF">     1</i>
   <i type="int" name="DIM">     3</i>
   <i type="int" name="ANTIRES">     0</i>
   <i name="OMEGAMAX">    -30.00000000</i>
   <i name="OMEGAMIN">    -30.00000000</i>
   <i name="OMEGATL">   -200.00000000</i>
   <i type="int" name="OMEGAGRID">     0</i>
   <i name="CSHIFT">     -0.10000000</i>
   <i type="logical" name="SELFENERGY"> F  </i>
   <i type="logical" name="LSPECTRAL"> F  </i>
   <i type="logical" name="LSPECTRALGW"> F  </i>
   <i type="logical" name="LSINGLES"> F  </i>
   <i type="logical" name="LFERMIGW"> F  </i>
   <i type="logical" name="ODDONLYGW"> F  </i>
   <i type="logical" name="EVENONLYGW"> F  </i>
   <i type="int" name="NKREDLFX">     1</i>
   <i type="int" name="NKREDLFY">     1</i>
   <i type="int" name="NKREDLFZ">     1</i>
   <i type="int" name="MAXMEM">  1800</i>
   <i type="int" name="TELESCOPE">     0</i>
   <i type="int" name="TAUPAR">     1</i>
   <i type="int" name="OMEGAPAR">    -1</i>
   <i name="LAMBDA">      1.00000000</i>
  </separator>
  <separator name="External order field" >
   <i name="OFIELD_KAPPA">      0.00000000</i>
   <v name="OFIELD_K">      0.00000000      0.00000000      0.00000000</v>
   <i name="OFIELD_Q6_NEAR">      0.00000000</i>
   <i name="OFIELD_Q6_FAR">      0.00000000</i>
   <i name="OFIELD_A">      0.00000000</i>
  </separator>
 </parameters>
 <atominfo>
  <atoms>       8 </atoms>
  <types>       1 </types>
  <array name="atoms" >
   <dimension dim="1">ion</dimension>
   <field type="string">element</field>
   <field type="int">atomtype</field>
   <set>
    <rc><c>Si</c><c>   1</c></rc>
    <rc><c>Si</c><c>   1</c></rc>
    <rc><c>Si</c><c>   1</c></rc>
    <rc><c>Si</c><c>   1</c></rc>
    <rc><c>Si</c><c>   1</c></rc>
    <rc><c>Si</c><c>   1</c></rc>
    <rc><c>Si</c><c>   1</c></rc>
    <rc><c>Si</c><c>   1</c></rc>
   </set>
  </array>
  <array name="atomtypes" >
   <dimension dim="1">type</dimension>
   <field type="int">atomspertype</field>
   <field type="string">element</field>
   <field>mass</field>
   <field>valence</field>
   <field type="string">pseudopotential</field>
   <set>
    <rc><c>   8</c><c>Si</c><c>     28.08500000</c><c>      4.00000000</c><c>  PAW_PBE Si 05Jan2001                  </c></rc>
   </set>
  </array>
 </atominfo>
 <structure name="initialpos" >
  <crystal>
   <varray name="basis" >
    <v>       5.46906415       0.00000000       0.00000000 </v>
    <v>       0.00000000       5.46906415       0.00000000 </v>
    <v>       0.00000000       0.00000000       5.46906415 </v>
   </varray>
   <i name="volume">    163.58333295 </i>
   <varray name="rec_basis" >
    <v>       0.18284664       0.00000000       0.00000000 </v>
    <v>       0.00000000       0.18284664       0.00000000 </v>
    <v>       0.00000000       0.00000000       0.18284664 </v>
   </varray>
  </crystal>
  <varray name="positions" >
   <v>       0.13556270       0.99803836       0.07771863 </v>
   <v>       0.40083445       0.25015169       0.33548678 </v>
   <v>       0.66392555       0.50513489       0.10788032 </v>
   <v>       0.88581459       0.78215656       0.35278920 </v>
   <v>       0.62696560       0.99932176       0.58660762 </v>
   <v>       0.91391782       0.25733539       0.83028040 </v>
   <v>       0.14866214       0.50524666       0.58554404 </v>
   <v>       0.40738452       0.73960693       0.85175767 </v>
  </varray>
 </structure>
 <calculation>
  <scstep>
   <time name="dav">    6.14    6.20</time>
   <time name="total">    6.22    6.29</time>
   <energy>
    <i name="alphaZ">     13.17029267 </i>
    <i name="ewald">   -907.54127437 </i>
    <i name="hartreedc">    -45.36609480 </i>
    <i name="XCdc">    -74.75415036 </i>
    <i name="pawpsdc">    704.99039692 </i>
    <i name="pawaedc">   -564.24414232 </i>
    <i name="eentropy">      0.00001004 </i>
    <i name="bandstr">    103.56413404 </i>
    <i name="atom">    824.52596983 </i>
    <i name="e_fr_energy">     54.34514166 </i>
    <i name="e_wo_entrp">     54.34513162 </i>
    <i name="e_0_energy">     54.34513915 </i>
   </energy>
  </scstep>
  <scstep>
   <time name="dav">    7.50    7.53</time>
   <time name="total">    7.53    7.56</time>
   <energy>
    <i name="e_fr_energy">    -39.48865432 </i>
    <i name="e_wo_entrp">    -39.48865432 </i>
    <i name="e_0_energy">    -39.48865432 </i>
   </energy>
  </scstep>
  <scstep>
   <time name="dav">    7.53    7.53</time>
   <time name="total">    7.54    7.55</time>
   <energy>
    <i name="e_fr_energy">    -43.64852742 </i>
    <i name="e_wo_entrp">    -43.64852742 </i>
    <i name="e_0_energy">    -43.64852742 </i>
   </energy>
  </scstep>
  <scstep>
   <time name="dav">    7.28    7.29</time>
   <time name="total">    7.30    7.31</time>
   <energy>
    <i name="e_fr_energy">    -43.72028045 </i>
    <i name="e_wo_entrp">    -43.72028045 </i>
    <i name="e_0_energy">    -43.72028045 </i>
   </energy>
  </scstep>
  <scstep>
   <time name="dav">    7.57    7.58</time>
   <time name="total">    7.80    7.82</time>
   <energy>
    <i name="e_fr_energy">    -43.72207331 </i>
    <i name="e_wo_entrp">    -43.72207331 </i>
    <i name="e_0_energy">    -43.72207331 </i>
   </energy>
  </scstep>
  <scstep>
   <time name="dav">    7.12    7.12</time>
   <time name="total">    7.35    7.37</time>
   <energy>
    <i name="e_fr_energy">    -43.24082142 </i>
    <i name="e_wo_entrp">    -43.24082569 </i>
    <i name="e_0_energy">    -43.24082248 </i>
   </energy>
  </scstep>
  <scstep>
   <time name="dav">    7.00    7.01</time>
   <time name="total">    7.26    7.26</time>
   <energy>
    <i name="e_fr_energy">    -43.02666975 </i>
    <i name="e_wo_entrp">    -43.02666975 </i>
    <i name="e_0_energy">    -43.02666975 </i>
   </energy>
  </scstep>
  <scstep>
   <time name="dav">    7.28    7.28</time>
   <time name="total">    7.50    7.53</time>
   <energy>
    <i name="e_fr_energy">    -43.03023717 </i>
    <i name="e_wo_entrp">    -43.03023717 </i>
    <i name="e_0_energy">    -43.03023717 </i>
   </energy>
  </scstep>
  <scstep>
   <time name="dav">    7.47    7.47</time>
   <time name="total">    7.72    7.72</time>
   <energy>
    <i name="e_fr_energy">    -43.03127214 </i>
    <i name="e_wo_entrp">    -43.03127214 </i>
    <i name="e_0_energy">    -43.03127214 </i>
   </energy>
  </scstep>
  <scstep>
   <time name="dav">    7.19    7.20</time>
   <time name="total">    7.43    7.45</time>
   <energy>
    <i name="e_fr_energy">    -43.03143678 </i>
    <i name="e_wo_entrp">    -43.03143678 </i>
    <i name="e_0_energy">    -43.03143678 </i>
   </energy>
  </scstep>
  <scstep>
   <time name="dav">    5.95    5.96</time>
   <time name="total">    6.00    6.00</time>
   <energy>
    <i name="alphaZ">     13.17029267 </i>
    <i name="ewald">   -907.54127437 </i>
    <i name="hartreedc">    -60.52754679 </i>
    <i name="XCdc">    -72.28631527 </i>
    <i name="pawpsdc">   3302.89124436 </i>
    <i name="pawaedc">  -3162.96453027 </i>
    <i name="eentropy">      0.00000000 </i>
    <i name="bandstr">     19.70066000 </i>
    <i name="atom">    824.52596983 </i>
    <i name="e_fr_energy">    -43.03149983 </i>
    <i name="e_wo_entrp">    -43.03149983 </i>
    <i name="e_0_energy">    -43.03149983 </i>
   </energy>
  </scstep>
  <structure>
   <crystal>
    <varray name="basis" >
     <v>       5.46906415       0.00000000       0.00000000 </v>
     <v>       0.00000000       5.46906415       0.00000000 </v>
     <v>       0.00000000       0.00000000       5.46906415 </v>
    </varray>
    <i name="volume">    163.58333295 </i>
    <varray name="rec_basis" >
     <v>       0.18284664       0.00000000       0.00000000 </v>
     <v>       0.00000000       0.18284664       0.00000000 </v>
     <v>       0.00000000       0.00000000       0.18284664 </v>
    </varray>
   </crystal>
   <varray name="positions" >
    <v>       0.13556270       0.99803836       0.07771863 </v>
    <v>       0.40083445       0.25015169       0.33548678 </v>
    <v>       0.66392555       0.50513489       0.10788032 </v>
    <v>       0.88581459       0.78215656       0.35278920 </v>
    <v>       0.62696560       0.99932176       0.58660762 </v>
    <v>       0.91391782       0.25733539       0.83028040 </v>
    <v>       0.14866214       0.50524666       0.58554404 </v>
    <v>       0.40738452       0.73960693       0.85175767 </v>
   </varray>
  </structure>
  <varray name="forces" >
   <v>       1.02454207       0.15363202       0.49312177 </v>
   <v>      -0.89154711       0.18372439      -0.47943905 </v>
   <v>       0.18227154      -0.32109556      -0.58418062 </v>
   <v>       1.00003945      -1.36509325      -0.48182702 </v>
   <v>       0.36810536       0.90256438       1.42579407 </v>
   <v>      -1.52097302      -0.14688538       0.10908753 </v>
   <v>       0.42246921       0.60290950      -0.31870420 </v>
   <v>      -0.58490751      -0.00975611      -0.16385248 </v>
  </varray>
  <varray name="stress" >
   <v>       0.69768073      -7.55836922     -10.72154024 </v>
   <v>      -7.55836921       1.74902266     -14.16752068 </v>
   <v>     -10.72154014     -14.16752059       3.20722615 </v>
  </varray>
  <energy>
   <i name="e_fr_energy">    -43.03149983 </i>
   <i name="e_wo_entrp">    -43.03149983 </i>
   <i name="e_0_energy">      0.00000000 </i>
  </energy>
  <time name="totalsc">   84.86   85.24</time>
  <eigenvalues>
   <array>
    <dimension dim="1">band</dimension>
    <dimension dim="2">kpoint</dimension>
    <dimension dim="3">spin</dimension>
    <field>eigene</field>
    <field>occ</field>
    <set>
     <set comment="spin 1">
      <set comment="kpoint 1">
       <r>   -6.1662    1.0000 </r>
       <r>   -2.7909    1.0000 </r>
       <r>   -2.5831    1.0000 </r>
       <r>   -2.4515    1.0000 </r>
       <r>   -1.8096    1.0000 </r>
       <r>   -1.6274    1.0000 </r>
       <r>   -1.4438    1.0000 </r>
       <r>    2.5956    1.0000 </r>
       <r>    2.6820    1.0000 </r>
       <r>    2.7329    1.0000 </r>
       <r>    2.7694    1.0000 </r>
       <r>    2.8487    1.0000 </r>
       <r>    2.9048    1.0000 </r>
       <r>    5.2778    1.0000 </r>
       <r>    5.3315    1.0000 </r>
       <r>    5.4676    1.0000 </r>
       <r>    6.2452    0.0000 </r>
       <r>    6.2825    0.0000 </r>
       <r>    6.3289    0.0000 </r>
       <r>    6.7317    0.0000 </r>
       <r>    6.8089    0.0000 </r>
       <r>    6.8991    0.0000 </r>
       <r>    8.1061    0.0000 </r>
       <r>    8.3349    0.0000 </r>
      </set>
      <set comment="kpoint 2">
       <r>   -6.0339    1.0000 </r>
       <r>   -3.4765    1.0000 </r>
       <r>   -2.5908    1.0000 </r>
       <r>   -2.4541    1.0000 </r>
       <r>   -1.7171    1.0000 </r>
       <r>   -1.5934    1.0000 </r>
       <r>   -0.6094    1.0000 </r>
       <r>    2.2306    1.0000 </r>
       <r>    2.3051    1.0000 </r>
       <r>    2.6433    1.0000 </r>
       <r>    2.7096    1.0000 </r>
       <r>    2.8976    1.0000 </r>
       <r>    2.9392    1.0000 </r>
       <r>    4.5041    1.0000 </r>
       <r>    4.9462    1.0000 </r>
       <r>    5.2461    1.0000 </r>
       <r>    6.3007    0.0000 </r>
       <r>    6.6630    0.0000 </r>
       <r>    6.7501    0.0000 </r>
       <r>    7.1703    0.0000 </r>
       <r>    7.5197    0.0000 </r>
       <r>    7.6185    0.0000 </r>
       <r>    8.0432    0.0000 </r>
       <r>    8.5281    0.0000 </r>
      </set>
      <set comment="kpoint 3">
       <r>   -5.7702    1.0000 </r>
       <r>   -4.2106    1.0000 </r>
       <r>   -2.5030    1.0000 </r>
       <r>   -2.3860    1.0000 </r>
       <r>   -1.6805    1.0000 </r>
       <r>   -1.5903    1.0000 </r>
       <r>    0.3912    1.0000 </r>
       <r>    1.8735    1.0000 </r>
       <r>    1.9359    1.0000 </r>
       <r>    2.3652    1.0000 </r>
       <r>    2.4233    1.0000 </r>
       <r>    3.1407    1.0000 </r>
       <r>    3.1867    1.0000 </r>
       <r>    3.5785    1.0000 </r>
       <r>    4.4390    1.0000 </r>
       <r>    4.6486    1.0000 </r>
       <r>    6.4490    0.0000 </r>
       <r>    7.3715    0.0000 </r>
       <r>    7.6282    0.0000 </r>
       <r>    7.6887    0.0000 </r>
       <r>    7.8962    0.0000 </r>
       <r>    8.6346    0.0000 </r>
       <r>    8.7576    0.0000 </r>
       <r>    9.3166    0.0000 </r>
      </set>
      <set comment="kpoint 4">
       <r>   -5.3807    1.0000 </r>
       <r>   -4.8429    1.0000 </r>
       <r>   -2.4316    1.0000 </r>
       <r>   -2.3372    1.0000 </r>
       <r>   -1.6464    1.0000 </r>
       <r>   -1.5962    1.0000 </r>
       <r>    1.3689    1.0000 </r>
       <r>    1.6870    1.0000 </r>
       <r>    1.7301    1.0000 </r>
       <r>    2.1751    1.0000 </r>
       <r>    2.2107    1.0000 </r>
       <r>    2.5799    1.0000 </r>
       <r>    3.4860    1.0000 </r>
       <r>    3.6151    1.0000 </r>
       <r>    3.9368    1.0000 </r>
       <r>    4.0337    1.0000 </r>
       <r>    6.7169    0.0000 </r>
       <r>    7.1072    0.0000 </r>
       <r>    8.3594    0.0000 </r>
       <r>    8.8392    0.0000 </r>
       <r>    8.9705    0.0000 </r>
       <r>    9.2780    0.0000 </r>
       <r>    9.8895    0.0000 </r>
       <r>   10.0323    0.0000 </r>
      </set>
      <set comment="kpoint 5">
       <r>   -5.3745    1.0000 </r>
       <r>   -4.8520    1.0000 </r>
       <r>   -2.4389    1.0000 </r>
       <r>   -2.3382    1.0000 </r>
       <r>   -1.6504    1.0000 </r>
       <r>   -1.5734    1.0000 </r>
       <r>    1.4918    1.0000 </r>
       <r>    1.6256    1.0000 </r>
       <r>    1.6704    1.0000 </r>
       <r>    2.2006    1.0000 </r>
       <r>    2.2524    1.0000 </r>
       <r>    2.4556    1.0000 </r>
       <r>    3.4853    1.0000 </r>
       <r>    3.5108    1.0000 </r>
       <r>    3.9278    1.0000 </r>
       <r>    4.1997    1.0000 </r>
       <r>    6.7350    0.0000 </r>
       <r>    7.0940    0.0000 </r>
       <r>    8.3935    0.0000 </r>
       <r>    8.9394    0.0000 </r>
       <r>    9.0475    0.0000 </r>
       <r>    9.2394    0.0000 </r>
       <r>    9.7539    0.0000 </r>
       <r>    9.8840    0.0000 </r>
      </set>
      <set comment="kpoint 6">
       <r>   -5.7660    1.0000 </r>
       <r>   -4.2239    1.0000 </r>
       <r>   -2.5127    1.0000 </r>
       <r>   -2.3919    1.0000 </r>
       <r>   -1.6764    1.0000 </r>
       <r>   -1.5551    1.0000 </r>
       <r>    0.4618    1.0000 </r>
       <r>    1.7789    1.0000 </r>
       <r>    1.8483    1.0000 </r>
       <r>    2.4289    1.0000 </r>
       <r>    2.4938    1.0000 </r>
       <r>    3.1080    1.0000 </r>
       <r>    3.1440    1.0000 </r>
       <r>    3.4156    1.0000 </r>
       <r>    4.4290    1.0000 </r>
       <r>    4.8764    1.0000 </r>
       <r>    6.4668    0.0000 </r>
       <r>    7.4532    0.0000 </r>
       <r>    7.6558    0.0000 </r>
       <r>    7.7682    0.0000 </r>
       <r>    7.8798    0.0000 </r>
       <r>    8.5392    0.0000 </r>
       <r>    8.6847    0.0000 </r>
       <r>    9.2953    0.0000 </r>
      </set>
      <set comment="kpoint 7">
       <r>   -6.0315    1.0000 </r>
       <r>   -3.4973    1.0000 </r>
       <r>   -2.5877    1.0000 </r>
       <r>   -2.4628    1.0000 </r>
       <r>   -1.7145    1.0000 </r>
       <r>   -1.5671    1.0000 </r>
       <r>   -0.5620    1.0000 </r>
       <r>    2.1243    1.0000 </r>
       <r>    2.2049    1.0000 </r>
       <r>    2.7128    1.0000 </r>
       <r>    2.7762    1.0000 </r>
       <r>    2.8940    1.0000 </r>
       <r>    2.9344    1.0000 </r>
       <r>    4.2915    1.0000 </r>
       <r>    4.9364    1.0000 </r>
       <r>    5.5344    1.0000 </r>
       <r>    6.3144    0.0000 </r>
       <r>    6.7867    0.0000 </r>
       <r>    6.8724    0.0000 </r>
       <r>    7.1029    0.0000 </r>
       <r>    7.4149    0.0000 </r>
       <r>    7.5394    0.0000 </r>
       <r>    8.0499    0.0000 </r>
       <r>    8.5191    0.0000 </r>
      </set>
      <set comment="kpoint 8">
       <r>   -6.1654    1.0000 </r>
       <r>   -2.8253    1.0000 </r>
       <r>   -2.5579    1.0000 </r>
       <r>   -2.4549    1.0000 </r>
       <r>   -1.8226    1.0000 </r>
       <r>   -1.6124    1.0000 </r>
       <r>   -1.4162    1.0000 </r>
       <r>    2.5121    1.0000 </r>
       <r>    2.6041    1.0000 </r>
       <r>    2.7158    1.0000 </r>
       <r>    2.7987    1.0000 </r>
       <r>    2.9263    1.0000 </r>
       <r>    2.9466    1.0000 </r>
       <r>    5.0540    1.0000 </r>
       <r>    5.2971    1.0000 </r>
       <r>    5.7760    1.0000 </r>
       <r>    6.2403    0.0000 </r>
       <r>    6.3759    0.0000 </r>
       <r>    6.4321    0.0000 </r>
       <r>    6.6389    0.0000 </r>
       <r>    6.6693    0.0000 </r>
       <r>    6.9395    0.0000 </r>
       <r>    8.1357    0.0000 </r>
       <r>    8.2899    0.0000 </r>
      </set>
      <set comment="kpoint 9">
       <r>   -6.0341    1.0000 </r>
       <r>   -3.4553    1.0000 </r>
       <r>   -2.6401    1.0000 </r>
       <r>   -2.4645    1.0000 </r>
       <r>   -1.7227    1.0000 </r>
       <r>   -1.5176    1.0000 </r>
       <r>   -0.6475    1.0000 </r>
       <r>    2.1965    1.0000 </r>
       <r>    2.3520    1.0000 </r>
       <r>    2.6239    1.0000 </r>
       <r>    2.7363    1.0000 </r>
       <r>    2.8872    1.0000 </r>
       <r>    2.9426    1.0000 </r>
       <r>    4.5226    1.0000 </r>
       <r>    5.0094    1.0000 </r>
       <r>    5.1632    1.0000 </r>
       <r>    6.3154    0.0000 </r>
       <r>    6.6492    0.0000 </r>
       <r>    6.7635    0.0000 </r>
       <r>    7.0651    0.0000 </r>
       <r>    7.5329    0.0000 </r>
       <r>    7.6800    0.0000 </r>
       <r>    8.0255    0.0000 </r>
       <r>    8.5946    0.0000 </r>
      </set>
      <set comment="kpoint 10">
       <r>   -5.9038    1.0000 </r>
       <r>   -3.4726    1.0000 </r>
       <r>   -3.2520    1.0000 </r>
       <r>   -2.5362    1.0000 </r>
       <r>   -1.6202    1.0000 </r>
       <r>   -0.8673    1.0000 </r>
       <r>   -0.5813    1.0000 </r>
       <r>    1.8045    1.0000 </r>
       <r>    2.4268    1.0000 </r>
       <r>    2.5093    1.0000 </r>
       <r>    2.7802    1.0000 </r>
       <r>    2.8830    1.0000 </r>
       <r>    3.0718    1.0000 </r>
       <r>    3.7382    1.0000 </r>
       <r>    4.6391    1.0000 </r>
       <r>    5.3587    1.0000 </r>
       <r>    6.5639    0.0000 </r>
       <r>    6.7242    0.0000 </r>
       <r>    6.8826    0.0000 </r>
       <r>    7.7472    0.0000 </r>
       <r>    7.8507    0.0000 </r>
       <r>    8.2338    0.0000 </r>
       <r>    8.5072    0.0000 </r>
       <r>    8.6439    0.0000 </r>
      </set>
      <set comment="kpoint 11">
       <r>   -5.6440    1.0000 </r>
       <r>   -4.1091    1.0000 </r>
       <r>   -3.1742    1.0000 </r>
       <r>   -2.6207    1.0000 </r>
       <r>   -1.4961    1.0000 </r>
       <r>   -0.9171    1.0000 </r>
       <r>    0.2017    1.0000 </r>
       <r>    1.5500    1.0000 </r>
       <r>    2.0375    1.0000 </r>
       <r>    2.6696    1.0000 </r>
       <r>    2.7528    1.0000 </r>
       <r>    2.9160    1.0000 </r>
       <r>    3.0262    1.0000 </r>
       <r>    3.2204    1.0000 </r>
       <r>    4.0967    1.0000 </r>
       <r>    5.0001    1.0000 </r>
       <r>    6.9703    0.0000 </r>
       <r>    7.0892    0.0000 </r>
       <r>    7.7128    0.0000 </r>
       <r>    8.1585    0.0000 </r>
       <r>    8.3094    0.0000 </r>
       <r>    8.7328    0.0000 </r>
       <r>    8.9658    0.0000 </r>
       <r>    9.5490    0.0000 </r>
      </set>
      <set comment="kpoint 12">
       <r>   -5.2608    1.0000 </r>
       <r>   -4.7260    1.0000 </r>
       <r>   -2.9751    1.0000 </r>
       <r>   -2.7771    1.0000 </r>
       <r>   -1.2982    1.0000 </r>
       <r>   -1.1193    1.0000 </r>
       <r>    1.0341    1.0000 </r>
       <r>    1.5347    1.0000 </r>
       <r>    1.6840    1.0000 </r>
       <r>    2.0668    1.0000 </r>
       <r>    2.6961    1.0000 </r>
       <r>    2.7934    1.0000 </r>
       <r>    3.1553    1.0000 </r>
       <r>    3.5531    1.0000 </r>
       <r>    3.7750    1.0000 </r>
       <r>    4.3517    1.0000 </r>
       <r>    7.2907    0.0000 </r>
       <r>    7.6503    0.0000 </r>
       <r>    8.1506    0.0000 </r>
       <r>    8.8540    0.0000 </r>
       <r>    9.0228    0.0000 </r>
       <r>    9.3994    0.0000 </r>
       <r>    9.6353    0.0000 </r>
       <r>   10.0108    0.0000 </r>
      </set>
      <set comment="kpoint 13">
       <r>   -5.2500    1.0000 </r>
       <r>   -4.7413    1.0000 </r>
       <r>   -3.0030    1.0000 </r>
       <r>   -2.7457    1.0000 </r>
       <r>   -1.3424    1.0000 </r>
       <r>   -1.0609    1.0000 </r>
       <r>    1.1980    1.0000 </r>
       <r>    1.4390    1.0000 </r>
       <r>    1.6504    1.0000 </r>
       <r>    1.9633    1.0000 </r>
       <r>    2.6548    1.0000 </r>
       <r>    2.8489    1.0000 </r>
       <r>    3.0989    1.0000 </r>
       <r>    3.5747    1.0000 </r>
       <r>    3.7362    1.0000 </r>
       <r>    4.4706    1.0000 </r>
       <r>    7.3084    0.0000 </r>
       <r>    7.6787    0.0000 </r>
       <r>    8.2110    0.0000 </r>
       <r>    8.9061    0.0000 </r>
       <r>    9.0660    0.0000 </r>
       <r>    9.4065    0.0000 </r>
       <r>    9.4837    0.0000 </r>
       <r>   10.0032    0.0000 </r>
      </set>
      <set comment="kpoint 14">
       <r>   -5.6366    1.0000 </r>
       <r>   -4.1296    1.0000 </r>
       <r>   -3.1997    1.0000 </r>
       <r>   -2.5881    1.0000 </r>
       <r>   -1.5262    1.0000 </r>
       <r>   -0.8491    1.0000 </r>
       <r>    0.3105    1.0000 </r>
       <r>    1.4580    1.0000 </r>
       <r>    1.9598    1.0000 </r>
       <r>    2.5986    1.0000 </r>
       <r>    2.7365    1.0000 </r>
       <r>    2.8068    1.0000 </r>
       <r>    3.0773    1.0000 </r>
       <r>    3.2024    1.0000 </r>
       <r>    4.1371    1.0000 </r>
       <r>    5.1698    1.0000 </r>
       <r>    7.0009    0.0000 </r>
       <r>    7.1976    0.0000 </r>
       <r>    7.8397    0.0000 </r>
       <r>    8.1278    0.0000 </r>
       <r>    8.2966    0.0000 </r>
       <r>    8.7043    0.0000 </r>
       <r>    8.8740    0.0000 </r>
       <r>    9.6239    0.0000 </r>
      </set>
      <set comment="kpoint 15">
       <r>   -5.8996    1.0000 </r>
       <r>   -3.4762    1.0000 </r>
       <r>   -3.2994    1.0000 </r>
       <r>   -2.5041    1.0000 </r>
       <r>   -1.6457    1.0000 </r>
       <r>   -0.7424    1.0000 </r>
       <r>   -0.5722    1.0000 </r>
       <r>    1.7088    1.0000 </r>
       <r>    2.3219    1.0000 </r>
       <r>    2.4170    1.0000 </r>
       <r>    2.8213    1.0000 </r>
       <r>    2.9366    1.0000 </r>
       <r>    3.1349    1.0000 </r>
       <r>    3.5843    1.0000 </r>
       <r>    4.6609    1.0000 </r>
       <r>    5.5735    1.0000 </r>
       <r>    6.6305    0.0000 </r>
       <r>    6.8234    0.0000 </r>
       <r>    6.9337    0.0000 </r>
       <r>    7.6484    0.0000 </r>
       <r>    7.8392    0.0000 </r>
       <r>    8.2386    0.0000 </r>
       <r>    8.4821    0.0000 </r>
       <r>    8.5706    0.0000 </r>
      </set>
      <set comment="kpoint 16">
       <r>   -6.0327    1.0000 </r>
       <r>   -3.4567    1.0000 </r>
       <r>   -2.7036    1.0000 </r>
       <r>   -2.4162    1.0000 </r>
       <r>   -1.7643    1.0000 </r>
       <r>   -1.4343    1.0000 </r>
       <r>   -0.6413    1.0000 </r>
       <r>    2.1228    1.0000 </r>
       <r>    2.3161    1.0000 </r>
       <r>    2.6290    1.0000 </r>
       <r>    2.7270    1.0000 </r>
       <r>    2.8396    1.0000 </r>
       <r>    3.0540    1.0000 </r>
       <r>    4.3707    1.0000 </r>
       <r>    5.0323    1.0000 </r>
       <r>    5.3276    1.0000 </r>
       <r>    6.3780    0.0000 </r>
       <r>    6.6483    0.0000 </r>
       <r>    6.8593    0.0000 </r>
       <r>    7.0136    0.0000 </r>
       <r>    7.4031    0.0000 </r>
       <r>    7.7266    0.0000 </r>
       <r>    8.0131    0.0000 </r>
       <r>    8.6325    0.0000 </r>
      </set>
      <set comment="kpoint 17">
       <r>   -5.7708    1.0000 </r>
       <r>   -4.1968    1.0000 </r>
       <r>   -2.5493    1.0000 </r>
       <r>   -2.4103    1.0000 </r>
       <r>   -1.6788    1.0000 </r>
       <r>   -1.5147    1.0000 </r>
       <r>    0.3599    1.0000 </r>
       <r>    1.8360    1.0000 </r>
       <r>    1.9725    1.0000 </r>
       <r>    2.3447    1.0000 </r>
       <r>    2.4624    1.0000 </r>
       <r>    3.1327    1.0000 </r>
       <r>    3.1750    1.0000 </r>
       <r>    3.6197    1.0000 </r>
       <r>    4.4906    1.0000 </r>
       <r>    4.5836    1.0000 </r>
       <r>    6.4570    0.0000 </r>
       <r>    7.4205    0.0000 </r>
       <r>    7.6166    0.0000 </r>
       <r>    7.6706    0.0000 </r>
       <r>    7.7578    0.0000 </r>
       <r>    8.6495    0.0000 </r>
       <r>    8.8343    0.0000 </r>
       <r>    9.3508    0.0000 </r>
      </set>
      <set comment="kpoint 18">
       <r>   -5.6444    1.0000 </r>
       <r>   -4.0945    1.0000 </r>
       <r>   -3.2003    1.0000 </r>
       <r>   -2.6244    1.0000 </r>
       <r>   -1.4957    1.0000 </r>
       <r>   -0.8759    1.0000 </r>
       <r>    0.1735    1.0000 </r>
       <r>    1.5409    1.0000 </r>
       <r>    2.0352    1.0000 </r>
       <r>    2.6685    1.0000 </r>
       <r>    2.7554    1.0000 </r>
       <r>    2.9084    1.0000 </r>
       <r>    3.0544    1.0000 </r>
       <r>    3.2236    1.0000 </r>
       <r>    4.0893    1.0000 </r>
       <r>    5.0057    1.0000 </r>
       <r>    6.9801    0.0000 </r>
       <r>    7.0958    0.0000 </r>
       <r>    7.7437    0.0000 </r>
       <r>    8.0317    0.0000 </r>
       <r>    8.2735    0.0000 </r>
       <r>    8.8434    0.0000 </r>
       <r>    8.9895    0.0000 </r>
       <r>    9.5201    0.0000 </r>
      </set>
      <set comment="kpoint 19">
       <r>   -5.3922    1.0000 </r>
       <r>   -3.9910    1.0000 </r>
       <r>   -3.7764    1.0000 </r>
       <r>   -2.9248    1.0000 </r>
       <r>   -1.2342    1.0000 </r>
       <r>   -0.3242    1.0000 </r>
       <r>   -0.0033    1.0000 </r>
       <r>    1.4302    1.0000 </r>
       <r>    2.1249    1.0000 </r>
       <r>    2.2300    1.0000 </r>
       <r>    2.3125    1.0000 </r>
       <r>    3.2026    1.0000 </r>
       <r>    3.3268    1.0000 </r>
       <r>    3.4368    1.0000 </r>
       <r>    3.5787    1.0000 </r>
       <r>    5.0836    1.0000 </r>
       <r>    7.0275    0.0000 </r>
       <r>    7.8396    0.0000 </r>
       <r>    8.0662    0.0000 </r>
       <r>    8.3571    0.0000 </r>
       <r>    9.0083    0.0000 </r>
       <r>    9.1492    0.0000 </r>
       <r>    9.3881    0.0000 </r>
       <r>    9.4446    0.0000 </r>
      </set>
      <set comment="kpoint 20">
       <r>   -5.0220    1.0000 </r>
       <r>   -4.5008    1.0000 </r>
       <r>   -3.5773    1.0000 </r>
       <r>   -3.2663    1.0000 </r>
       <r>   -0.8975    1.0000 </r>
       <r>   -0.5905    1.0000 </r>
       <r>    0.5606    1.0000 </r>
       <r>    1.4081    1.0000 </r>
       <r>    1.5641    1.0000 </r>
       <r>    1.8126    1.0000 </r>
       <r>    2.5880    1.0000 </r>
       <r>    2.9730    1.0000 </r>
       <r>    3.4221    1.0000 </r>
       <r>    3.5193    1.0000 </r>
       <r>    4.0323    1.0000 </r>
       <r>    4.6476    1.0000 </r>
       <r>    7.6144    0.0000 </r>
       <r>    8.2383    0.0000 </r>
       <r>    8.5243    0.0000 </r>
       <r>    8.7518    0.0000 </r>
       <r>    8.8682    0.0000 </r>
       <r>    9.2172    0.0000 </r>
       <r>    9.4284    0.0000 </r>
       <r>    9.8977    0.0000 </r>
      </set>
      <set comment="kpoint 21">
       <r>   -5.0061    1.0000 </r>
       <r>   -4.5221    1.0000 </r>
       <r>   -3.6077    1.0000 </r>
       <r>   -3.2298    1.0000 </r>
       <r>   -0.9613    1.0000 </r>
       <r>   -0.5101    1.0000 </r>
       <r>    0.7161    1.0000 </r>
       <r>    1.2129    1.0000 </r>
       <r>    1.5159    1.0000 </r>
       <r>    1.8605    1.0000 </r>
       <r>    2.5285    1.0000 </r>
       <r>    3.0123    1.0000 </r>
       <r>    3.3747    1.0000 </r>
       <r>    3.5728    1.0000 </r>
       <r>    3.9578    1.0000 </r>
       <r>    4.7651    1.0000 </r>
       <r>    7.7273    0.0000 </r>
       <r>    8.2355    0.0000 </r>
       <r>    8.5756    0.0000 </r>
       <r>    8.6836    0.0000 </r>
       <r>    8.8254    0.0000 </r>
       <r>    9.2442    0.0000 </r>
       <r>    9.4499    0.0000 </r>
       <r>    9.9068    0.0000 </r>
      </set>
      <set comment="kpoint 22">
       <r>   -5.3812    1.0000 </r>
       <r>   -3.9952    1.0000 </r>
       <r>   -3.8282    1.0000 </r>
       <r>   -2.8801    1.0000 </r>
       <r>   -1.2880    1.0000 </r>
       <r>   -0.1523    1.0000 </r>
       <r>    0.0428    1.0000 </r>
       <r>    1.3330    1.0000 </r>
       <r>    1.9555    1.0000 </r>
       <r>    2.1751    1.0000 </r>
       <r>    2.3179    1.0000 </r>
       <r>    3.1432    1.0000 </r>
       <r>    3.2797    1.0000 </r>
       <r>    3.5380    1.0000 </r>
       <r>    3.6034    1.0000 </r>
       <r>    5.2388    1.0000 </r>
       <r>    7.1168    0.0000 </r>
       <r>    7.9541    0.0000 </r>
       <r>    8.0792    0.0000 </r>
       <r>    8.4298    0.0000 </r>
       <r>    8.8742    0.0000 </r>
       <r>    9.2164    0.0000 </r>
       <r>    9.3201    0.0000 </r>
       <r>    9.4622    0.0000 </r>
      </set>
      <set comment="kpoint 23">
       <r>   -5.6381    1.0000 </r>
       <r>   -4.1007    1.0000 </r>
       <r>   -3.2589    1.0000 </r>
       <r>   -2.5746    1.0000 </r>
       <r>   -1.5435    1.0000 </r>
       <r>   -0.7352    1.0000 </r>
       <r>    0.2130    1.0000 </r>
       <r>    1.4429    1.0000 </r>
       <r>    1.9801    1.0000 </r>
       <r>    2.5374    1.0000 </r>
       <r>    2.7007    1.0000 </r>
       <r>    2.8666    1.0000 </r>
       <r>    3.1307    1.0000 </r>
       <r>    3.2405    1.0000 </r>
       <r>    4.1100    1.0000 </r>
       <r>    5.1734    1.0000 </r>
       <r>    7.0908    0.0000 </r>
       <r>    7.1598    0.0000 </r>
       <r>    7.7639    0.0000 </r>
       <r>    8.0070    0.0000 </r>
       <r>    8.2376    0.0000 </r>
       <r>    8.8641    0.0000 </r>
       <r>    8.9834    0.0000 </r>
       <r>    9.5067    0.0000 </r>
      </set>
      <set comment="kpoint 24">
       <r>   -5.7687    1.0000 </r>
       <r>   -4.1991    1.0000 </r>
       <r>   -2.6190    1.0000 </r>
       <r>   -2.3605    1.0000 </r>
       <r>   -1.7187    1.0000 </r>
       <r>   -1.4260    1.0000 </r>
       <r>    0.3781    1.0000 </r>
       <r>    1.7629    1.0000 </r>
       <r>    1.9335    1.0000 </r>
       <r>    2.3395    1.0000 </r>
       <r>    2.5481    1.0000 </r>
       <r>    2.9874    1.0000 </r>
       <r>    3.2624    1.0000 </r>
       <r>    3.5518    1.0000 </r>
       <r>    4.4793    1.0000 </r>
       <r>    4.7137    1.0000 </r>
       <r>    6.4972    0.0000 </r>
       <r>    7.4519    0.0000 </r>
       <r>    7.5695    0.0000 </r>
       <r>    7.6358    0.0000 </r>
       <r>    7.8890    0.0000 </r>
       <r>    8.5222    0.0000 </r>
       <r>    8.8546    0.0000 </r>
       <r>    9.3542    0.0000 </r>
      </set>
      <set comment="kpoint 25">
       <r>   -5.3852    1.0000 </r>
       <r>   -4.8281    1.0000 </r>
       <r>   -2.4753    1.0000 </r>
       <r>   -2.3748    1.0000 </r>
       <r>   -1.6429    1.0000 </r>
       <r>   -1.5122    1.0000 </r>
       <r>    1.3674    1.0000 </r>
       <r>    1.6412    1.0000 </r>
       <r>    1.7179    1.0000 </r>
       <r>    2.1792    1.0000 </r>
       <r>    2.2471    1.0000 </r>
       <r>    2.5705    1.0000 </r>
       <r>    3.4920    1.0000 </r>
       <r>    3.6232    1.0000 </r>
       <r>    3.9558    1.0000 </r>
       <r>    4.0310    1.0000 </r>
       <r>    6.7186    0.0000 </r>
       <r>    7.1234    0.0000 </r>
       <r>    8.3539    0.0000 </r>
       <r>    8.7683    0.0000 </r>
       <r>    8.9340    0.0000 </r>
       <r>    9.2501    0.0000 </r>
       <r>    9.8924    0.0000 </r>
       <r>   10.0914    0.0000 </r>
      </set>
      <set comment="kpoint 26">
       <r>   -5.2650    1.0000 </r>
       <r>   -4.7106    1.0000 </r>
       <r>   -3.0047    1.0000 </r>
       <r>   -2.7865    1.0000 </r>
       <r>   -1.2952    1.0000 </r>
       <r>   -1.0705    1.0000 </r>
       <r>    1.0261    1.0000 </r>
       <r>    1.5014    1.0000 </r>
       <r>    1.6656    1.0000 </r>
       <r>    2.0708    1.0000 </r>
       <r>    2.6997    1.0000 </r>
       <r>    2.8217    1.0000 </r>
       <r>    3.1678    1.0000 </r>
       <r>    3.5193    1.0000 </r>
       <r>    3.7867    1.0000 </r>
       <r>    4.3756    1.0000 </r>
       <r>    7.2979    0.0000 </r>
       <r>    7.6842    0.0000 </r>
       <r>    8.1282    0.0000 </r>
       <r>    8.8438    0.0000 </r>
       <r>    8.9276    0.0000 </r>
       <r>    9.4594    0.0000 </r>
       <r>    9.5894    0.0000 </r>
       <r>    9.9649    0.0000 </r>
      </set>
      <set comment="kpoint 27">
       <r>   -5.0258    1.0000 </r>
       <r>   -4.4845    1.0000 </r>
       <r>   -3.5985    1.0000 </r>
       <r>   -3.2668    1.0000 </r>
       <r>   -0.8954    1.0000 </r>
       <r>   -0.5583    1.0000 </r>
       <r>    0.5426    1.0000 </r>
       <r>    1.4046    1.0000 </r>
       <r>    1.5541    1.0000 </r>
       <r>    1.7961    1.0000 </r>
       <r>    2.5990    1.0000 </r>
       <r>    2.9786    1.0000 </r>
       <r>    3.4162    1.0000 </r>
       <r>    3.5327    1.0000 </r>
       <r>    4.0268    1.0000 </r>
       <r>    4.6601    1.0000 </r>
       <r>    7.6151    0.0000 </r>
       <r>    8.2414    0.0000 </r>
       <r>    8.4695    0.0000 </r>
       <r>    8.7900    0.0000 </r>
       <r>    8.9235    0.0000 </r>
       <r>    9.2377    0.0000 </r>
       <r>    9.3604    0.0000 </r>
       <r>    9.8743    0.0000 </r>
      </set>
      <set comment="kpoint 28">
       <r>   -4.6804    1.0000 </r>
       <r>   -4.2499    1.0000 </r>
       <r>   -4.0452    1.0000 </r>
       <r>   -3.7333    1.0000 </r>
       <r>   -0.4503    1.0000 </r>
       <r>   -0.1564    1.0000 </r>
       <r>    0.1717    1.0000 </r>
       <r>    0.7881    1.0000 </r>
       <r>    1.7641    1.0000 </r>
       <r>    2.0285    1.0000 </r>
       <r>    2.1417    1.0000 </r>
       <r>    2.4688    1.0000 </r>
       <r>    3.9643    1.0000 </r>
       <r>    4.1120    1.0000 </r>
       <r>    4.2675    1.0000 </r>
       <r>    4.6159    1.0000 </r>
       <r>    7.6266    0.0000 </r>
       <r>    8.2244    0.0000 </r>
       <r>    8.3073    0.0000 </r>
       <r>    8.4084    0.0000 </r>
       <r>    9.2914    0.0000 </r>
       <r>    9.5569    0.0000 </r>
       <r>    9.7671    0.0000 </r>
       <r>    9.9538    0.0000 </r>
      </set>
      <set comment="kpoint 29">
       <r>   -4.6599    1.0000 </r>
       <r>   -4.2542    1.0000 </r>
       <r>   -4.0975    1.0000 </r>
       <r>   -3.7008    1.0000 </r>
       <r>   -0.5239    1.0000 </r>
       <r>    0.0195    1.0000 </r>
       <r>    0.2252    1.0000 </r>
       <r>    0.6375    1.0000 </r>
       <r>    1.6952    1.0000 </r>
       <r>    2.0190    1.0000 </r>
       <r>    2.1751    1.0000 </r>
       <r>    2.4924    1.0000 </r>
       <r>    3.9910    1.0000 </r>
       <r>    4.0583    1.0000 </r>
       <r>    4.2133    1.0000 </r>
       <r>    4.7239    1.0000 </r>
       <r>    7.7299    0.0000 </r>
       <r>    8.1488    0.0000 </r>
       <r>    8.2912    0.0000 </r>
       <r>    8.3695    0.0000 </r>
       <r>    9.4351    0.0000 </r>
       <r>    9.6032    0.0000 </r>
       <r>    9.6973    0.0000 </r>
       <r>   10.0044    0.0000 </r>
      </set>
      <set comment="kpoint 30">
       <r>   -5.0107    1.0000 </r>
       <r>   -4.4932    1.0000 </r>
       <r>   -3.6565    1.0000 </r>
       <r>   -3.2271    1.0000 </r>
       <r>   -0.9555    1.0000 </r>
       <r>   -0.3798    1.0000 </r>
       <r>    0.5929    1.0000 </r>
       <r>    1.2348    1.0000 </r>
       <r>    1.4939    1.0000 </r>
       <r>    1.7550    1.0000 </r>
       <r>    2.6383    1.0000 </r>
       <r>    2.9814    1.0000 </r>
       <r>    3.3596    1.0000 </r>
       <r>    3.6253    1.0000 </r>
       <r>    3.9418    1.0000 </r>
       <r>    4.7955    1.0000 </r>
       <r>    7.7063    0.0000 </r>
       <r>    8.3229    0.0000 </r>
       <r>    8.4579    0.0000 </r>
       <r>    8.7399    0.0000 </r>
       <r>    9.0507    0.0000 </r>
       <r>    9.1499    0.0000 </r>
       <r>    9.3679    0.0000 </r>
       <r>    9.7858    0.0000 </r>
      </set>
      <set comment="kpoint 31">
       <r>   -5.2563    1.0000 </r>
       <r>   -4.7164    1.0000 </r>
       <r>   -3.0795    1.0000 </r>
       <r>   -2.7366    1.0000 </r>
       <r>   -1.3483    1.0000 </r>
       <r>   -0.9215    1.0000 </r>
       <r>    1.0801    1.0000 </r>
       <r>    1.4050    1.0000 </r>
       <r>    1.6359    1.0000 </r>
       <r>    1.9396    1.0000 </r>
       <r>    2.6488    1.0000 </r>
       <r>    2.9359    1.0000 </r>
       <r>    3.1626    1.0000 </r>
       <r>    3.4952    1.0000 </r>
       <r>    3.7494    1.0000 </r>
       <r>    4.5190    1.0000 </r>
       <r>    7.3867    0.0000 </r>
       <r>    7.6897    0.0000 </r>
       <r>    8.1913    0.0000 </r>
       <r>    8.8169    0.0000 </r>
       <r>    8.9940    0.0000 </r>
       <r>    9.3470    0.0000 </r>
       <r>    9.4996    0.0000 </r>
       <r>   10.0209    0.0000 </r>
      </set>
      <set comment="kpoint 32">
       <r>   -5.3823    1.0000 </r>
       <r>   -4.8301    1.0000 </r>
       <r>   -2.5477    1.0000 </r>
       <r>   -2.3237    1.0000 </r>
       <r>   -1.6814    1.0000 </r>
       <r>   -1.4260    1.0000 </r>
       <r>    1.3907    1.0000 </r>
       <r>    1.5825    1.0000 </r>
       <r>    1.6957    1.0000 </r>
       <r>    2.1518    1.0000 </r>
       <r>    2.3237    1.0000 </r>
       <r>    2.5091    1.0000 </r>
       <r>    3.4293    1.0000 </r>
       <r>    3.6557    1.0000 </r>
       <r>    3.9068    1.0000 </r>
       <r>    4.1562    1.0000 </r>
       <r>    6.7503    0.0000 </r>
       <r>    7.1266    0.0000 </r>
       <r>    8.3411    0.0000 </r>
       <r>    8.7460    0.0000 </r>
       <r>    9.0790    0.0000 </r>
       <r>    9.2237    0.0000 </r>
       <r>    9.7027    0.0000 </r>
       <r>   10.0785    0.0000 </r>
      </set>
      <set comment="kpoint 33">
       <r>   -5.3781    1.0000 </r>
       <r>   -4.8381    1.0000 </r>
       <r>   -2.4947    1.0000 </r>
       <r>   -2.3672    1.0000 </r>
       <r>   -1.6455    1.0000 </r>
       <r>   -1.4834    1.0000 </r>
       <r>    1.4775    1.0000 </r>
       <r>    1.6106    1.0000 </r>
       <r>    1.6779    1.0000 </r>
       <r>    2.2035    1.0000 </r>
       <r>    2.2830    1.0000 </r>
       <r>    2.3972    1.0000 </r>
       <r>    3.4544    1.0000 </r>
       <r>    3.5021    1.0000 </r>
       <r>    3.9991    1.0000 </r>
       <r>    4.2152    1.0000 </r>
       <r>    6.7442    0.0000 </r>
       <r>    7.0992    0.0000 </r>
       <r>    8.3668    0.0000 </r>
       <r>    8.9056    0.0000 </r>
       <r>    9.0695    0.0000 </r>
       <r>    9.2083    0.0000 </r>
       <r>    9.7316    0.0000 </r>
       <r>    9.9203    0.0000 </r>
      </set>
      <set comment="kpoint 34">
       <r>   -5.2534    1.0000 </r>
       <r>   -4.7269    1.0000 </r>
       <r>   -3.0179    1.0000 </r>
       <r>   -2.7793    1.0000 </r>
       <r>   -1.3000    1.0000 </r>
       <r>   -1.0379    1.0000 </r>
       <r>    1.1849    1.0000 </r>
       <r>    1.4499    1.0000 </r>
       <r>    1.6676    1.0000 </r>
       <r>    1.8671    1.0000 </r>
       <r>    2.6775    1.0000 </r>
       <r>    2.8872    1.0000 </r>
       <r>    3.0391    1.0000 </r>
       <r>    3.5595    1.0000 </r>
       <r>    3.8107    1.0000 </r>
       <r>    4.4781    1.0000 </r>
       <r>    7.3120    0.0000 </r>
       <r>    7.6939    0.0000 </r>
       <r>    8.2145    0.0000 </r>
       <r>    8.8570    0.0000 </r>
       <r>    9.1285    0.0000 </r>
       <r>    9.3466    0.0000 </r>
       <r>    9.4771    0.0000 </r>
       <r>   10.0493    0.0000 </r>
      </set>
      <set comment="kpoint 35">
       <r>   -5.0090    1.0000 </r>
       <r>   -4.5069    1.0000 </r>
       <r>   -3.6201    1.0000 </r>
       <r>   -3.2447    1.0000 </r>
       <r>   -0.9309    1.0000 </r>
       <r>   -0.4956    1.0000 </r>
       <r>    0.7083    1.0000 </r>
       <r>    1.2304    1.0000 </r>
       <r>    1.4751    1.0000 </r>
       <r>    1.8259    1.0000 </r>
       <r>    2.5152    1.0000 </r>
       <r>    3.0381    1.0000 </r>
       <r>    3.3615    1.0000 </r>
       <r>    3.6020    1.0000 </r>
       <r>    3.9735    1.0000 </r>
       <r>    4.7637    1.0000 </r>
       <r>    7.7167    0.0000 </r>
       <r>    8.2272    0.0000 </r>
       <r>    8.6218    0.0000 </r>
       <r>    8.7250    0.0000 </r>
       <r>    8.7751    0.0000 </r>
       <r>    9.2563    0.0000 </r>
       <r>    9.4822    0.0000 </r>
       <r>    9.8741    0.0000 </r>
      </set>
      <set comment="kpoint 36">
       <r>   -4.6593    1.0000 </r>
       <r>   -4.2483    1.0000 </r>
       <r>   -4.0989    1.0000 </r>
       <r>   -3.7103    1.0000 </r>
       <r>   -0.5017    1.0000 </r>
       <r>    0.0249    1.0000 </r>
       <r>    0.2231    1.0000 </r>
       <r>    0.6254    1.0000 </r>
       <r>    1.6779    1.0000 </r>
       <r>    2.0016    1.0000 </r>
       <r>    2.1618    1.0000 </r>
       <r>    2.5219    1.0000 </r>
       <r>    3.9859    1.0000 </r>
       <r>    4.0665    1.0000 </r>
       <r>    4.2249    1.0000 </r>
       <r>    4.7181    1.0000 </r>
       <r>    7.7295    0.0000 </r>
       <r>    8.1609    0.0000 </r>
       <r>    8.3030    0.0000 </r>
       <r>    8.3411    0.0000 </r>
       <r>    9.4129    0.0000 </r>
       <r>    9.6179    0.0000 </r>
       <r>    9.8077    0.0000 </r>
       <r>   10.0104    0.0000 </r>
      </set>
      <set comment="kpoint 37">
       <r>   -4.6655    1.0000 </r>
       <r>   -4.2509    1.0000 </r>
       <r>   -4.0481    1.0000 </r>
       <r>   -3.7624    1.0000 </r>
       <r>   -0.3193    1.0000 </r>
       <r>   -0.1468    1.0000 </r>
       <r>    0.1859    1.0000 </r>
       <r>    0.6637    1.0000 </r>
       <r>    1.6517    1.0000 </r>
       <r>    2.0008    1.0000 </r>
       <r>    2.1151    1.0000 </r>
       <r>    2.5800    1.0000 </r>
       <r>    3.9794    1.0000 </r>
       <r>    4.1354    1.0000 </r>
       <r>    4.2981    1.0000 </r>
       <r>    4.5953    1.0000 </r>
       <r>    7.6318    0.0000 </r>
       <r>    8.2276    0.0000 </r>
       <r>    8.2867    0.0000 </r>
       <r>    8.3731    0.0000 </r>
       <r>    9.4533    0.0000 </r>
       <r>    9.6868    0.0000 </r>
       <r>    9.8964    0.0000 </r>
       <r>   10.0097    0.0000 </r>
      </set>
      <set comment="kpoint 38">
       <r>   -5.0146    1.0000 </r>
       <r>   -4.4894    1.0000 </r>
       <r>   -3.5989    1.0000 </r>
       <r>   -3.3077    1.0000 </r>
       <r>   -0.7554    1.0000 </r>
       <r>   -0.5671    1.0000 </r>
       <r>    0.5871    1.0000 </r>
       <r>    1.2805    1.0000 </r>
       <r>    1.4508    1.0000 </r>
       <r>    1.7561    1.0000 </r>
       <r>    2.5123    1.0000 </r>
       <r>    3.0987    1.0000 </r>
       <r>    3.4591    1.0000 </r>
       <r>    3.5479    1.0000 </r>
       <r>    4.0954    1.0000 </r>
       <r>    4.6292    1.0000 </r>
       <r>    7.6212    0.0000 </r>
       <r>    8.2548    0.0000 </r>
       <r>    8.6475    0.0000 </r>
       <r>    8.7724    0.0000 </r>
       <r>    8.8203    0.0000 </r>
       <r>    9.3552    0.0000 </r>
       <r>    9.4772    0.0000 </r>
       <r>    9.8021    0.0000 </r>
[...]
       <r>   -4.0277    1.0000 </r>
       <r>   -3.7075    1.0000 </r>
       <r>   -0.5173    1.0000 </r>
       <r>   -0.0675    1.0000 </r>
       <r>    0.3817    1.0000 </r>
       <r>    0.5796    1.0000 </r>
       <r>    1.6697    1.0000 </r>
       <r>    1.9675    1.0000 </r>
       <r>    2.1870    1.0000 </r>
       <r>    2.5297    1.0000 </r>
       <r>    3.9051    1.0000 </r>
       <r>    4.1022    1.0000 </r>
       <r>    4.2402    1.0000 </r>
       <r>    4.7431    1.0000 </r>
       <r>    7.7437    0.0000 </r>
       <r>    8.1219    0.0000 </r>
       <r>    8.3119    0.0000 </r>
       <r>    8.3560    0.0000 </r>
       <r>    9.3634    0.0000 </r>
       <r>    9.7010    0.0000 </r>
       <r>    9.8386    0.0000 </r>
       <r>   10.0186    0.0000 </r>
      </set>
      <set comment="kpoint 254">
       <r>   -5.0023    1.0000 </r>
       <r>   -4.5285    1.0000 </r>
       <r>   -3.6047    1.0000 </r>
       <r>   -3.2368    1.0000 </r>
       <r>   -0.9485    1.0000 </r>
       <r>   -0.4902    1.0000 </r>
       <r>    0.7710    1.0000 </r>
       <r>    1.1802    1.0000 </r>
       <r>    1.4677    1.0000 </r>
       <r>    1.8047    1.0000 </r>
       <r>    2.5221    1.0000 </r>
       <r>    3.0405    1.0000 </r>
       <r>    3.3171    1.0000 </r>
       <r>    3.6339    1.0000 </r>
       <r>    3.9694    1.0000 </r>
       <r>    4.7918    1.0000 </r>
       <r>    7.7156    0.0000 </r>
       <r>    8.2380    0.0000 </r>
       <r>    8.6303    0.0000 </r>
       <r>    8.7179    0.0000 </r>
       <r>    8.7955    0.0000 </r>
       <r>    9.2270    0.0000 </r>
       <r>    9.5516    0.0000 </r>
       <r>    9.8424    0.0000 </r>
      </set>
      <set comment="kpoint 255">
       <r>   -5.2491    1.0000 </r>
       <r>   -4.7383    1.0000 </r>
       <r>   -3.0128    1.0000 </r>
       <r>   -2.7665    1.0000 </r>
       <r>   -1.3184    1.0000 </r>
       <r>   -1.0232    1.0000 </r>
       <r>    1.2355    1.0000 </r>
       <r>    1.4133    1.0000 </r>
       <r>    1.6423    1.0000 </r>
       <r>    1.8543    1.0000 </r>
       <r>    2.6557    1.0000 </r>
       <r>    2.8939    1.0000 </r>
       <r>    3.0270    1.0000 </r>
       <r>    3.5879    1.0000 </r>
       <r>    3.8019    1.0000 </r>
       <r>    4.5045    1.0000 </r>
       <r>    7.3149    0.0000 </r>
       <r>    7.6389    0.0000 </r>
       <r>    8.3094    0.0000 </r>
       <r>    8.8956    0.0000 </r>
       <r>    9.1546    0.0000 </r>
       <r>    9.3325    0.0000 </r>
       <r>    9.3999    0.0000 </r>
       <r>   10.0324    0.0000 </r>
      </set>
      <set comment="kpoint 256">
       <r>   -5.3760    1.0000 </r>
       <r>   -4.8451    1.0000 </r>
       <r>   -2.4728    1.0000 </r>
       <r>   -2.3661    1.0000 </r>
       <r>   -1.6486    1.0000 </r>
       <r>   -1.4951    1.0000 </r>
       <r>    1.5163    1.0000 </r>
       <r>    1.5883    1.0000 </r>
       <r>    1.6447    1.0000 </r>
       <r>    2.2073    1.0000 </r>
       <r>    2.2784    1.0000 </r>
       <r>    2.3921    1.0000 </r>
       <r>    3.4141    1.0000 </r>
       <r>    3.5484    1.0000 </r>
       <r>    4.0184    1.0000 </r>
       <r>    4.2082    1.0000 </r>
       <r>    6.7400    0.0000 </r>
       <r>    7.0840    0.0000 </r>
       <r>    8.3778    0.0000 </r>
       <r>    8.9492    0.0000 </r>
       <r>    9.0908    0.0000 </r>
       <r>    9.2581    0.0000 </r>
       <r>    9.6785    0.0000 </r>
       <r>    9.8911    0.0000 </r>
      </set>
     </set>
    </set>
   </array>
  </eigenvalues>
  <separator name="orbital magnetization" >
   <v name="MAGDIPOLOUT">      0.00000000      0.00000000      0.00000000</v>
  </separator>
  <dos>
   <i name="efermi">      5.86920271 </i>
   <total>
    <array>
     <dimension dim="1">gridpoints</dimension>
     <dimension dim="2">spin</dimension>
     <field>energy</field>
     <field>total</field>
     <field>integrated</field>
     <set>
      <set comment="spin 1">
       <r>    -6.9889     0.0000     0.0000 </r>
       <r>    -6.9286     0.0000     0.0000 </r>
       <r>    -6.8683     0.0000     0.0000 </r>
       <r>    -6.8079     0.0000     0.0000 </r>
       <r>    -6.7476     0.0000     0.0000 </r>
       <r>    -6.6873     0.0000     0.0000 </r>
       <r>    -6.6269     0.0000     0.0000 </r>
       <r>    -6.5666     0.0000     0.0000 </r>
       <r>    -6.5063     0.0000     0.0000 </r>
       <r>    -6.4459     0.0000     0.0000 </r>
       <r>    -6.3856     0.0000     0.0000 </r>
       <r>    -6.3253     0.0000     0.0000 </r>
       <r>    -6.2649     0.0000     0.0000 </r>
       <r>    -6.2046     0.0000     0.0000 </r>
       <r>    -6.1443     0.5156     0.0311 </r>
       <r>    -6.0839     0.0000     0.0313 </r>
       <r>    -6.0236     1.6212     0.1291 </r>
       <r>    -5.9633    -0.0673     0.1250 </r>
       <r>    -5.9030     0.4623     0.1529 </r>
       <r>    -5.8426     1.0917     0.2187 </r>
       <r>    -5.7823    -0.0210     0.2175 </r>
       <r>    -5.7220     2.0929     0.3437 </r>
       <r>    -5.6616     0.0012     0.3438 </r>
       <r>    -5.6013     3.1066     0.5312 </r>
       <r>    -5.5410    -0.0009     0.5312 </r>
       <r>    -5.4806     1.5538     0.6249 </r>
       <r>    -5.4203     0.0009     0.6251 </r>
       <r>    -5.3600     3.1074     0.8125 </r>
       <r>    -5.2996    -0.0034     0.8126 </r>
       <r>    -5.2393     4.7268     1.0977 </r>
       <r>    -5.1790    -0.0701     1.0938 </r>
       <r>    -5.1186     1.5766     1.1889 </r>
       <r>    -5.0583    -0.0128     1.1882 </r>
       <r>    -4.9980     3.4500     1.3963 </r>
       <r>    -4.9376     0.1362     1.4047 </r>
       <r>    -4.8773     3.1623     1.5955 </r>
       <r>    -4.8170     1.5318     1.6880 </r>
       <r>    -4.7567    -0.0158     1.6872 </r>
       <r>    -4.6963     3.5617     1.9021 </r>
       <r>    -4.6360     2.8992     2.0771 </r>
       <r>    -4.5757     1.8275     2.1874 </r>
       <r>    -4.5153     1.7925     2.2956 </r>
       <r>    -4.4550     2.5378     2.4488 </r>
       <r>    -4.3947     2.3342     2.5896 </r>
       <r>    -4.3343     2.1290     2.7181 </r>
       <r>    -4.2740     0.5322     2.7502 </r>
       <r>    -4.2137     2.6879     2.9124 </r>
       <r>    -4.1533     3.5452     3.1263 </r>
       <r>    -4.0930     3.6356     3.3457 </r>
       <r>    -4.0327     3.2500     3.5419 </r>
       <r>    -3.9723     4.1048     3.7896 </r>
       <r>    -3.9120     2.1930     3.9221 </r>
       <r>    -3.8517     2.3187     4.0621 </r>
       <r>    -3.7914     1.8018     4.1708 </r>
       <r>    -3.7310     3.5635     4.3858 </r>
       <r>    -3.6707     4.5187     4.6586 </r>
       <r>    -3.6104     3.4018     4.8639 </r>
       <r>    -3.5500     4.9244     5.1611 </r>
       <r>    -3.4897     1.2070     5.2341 </r>
       <r>    -3.4294     3.4944     5.4450 </r>
       <r>    -3.3690     0.7343     5.4893 </r>
       <r>    -3.3087     3.4351     5.6966 </r>
       <r>    -3.2484     3.9188     5.9331 </r>
       <r>    -3.1880     4.9440     6.2315 </r>
       <r>    -3.1277     3.0295     6.4144 </r>
       <r>    -3.0674     2.4963     6.5650 </r>
       <r>    -3.0070     2.1278     6.6935 </r>
       <r>    -2.9467     1.9707     6.8124 </r>
       <r>    -2.8864     0.4973     6.8425 </r>
       <r>    -2.8261     1.6711     6.9433 </r>
       <r>    -2.7657     1.1469     7.0126 </r>
       <r>    -2.7054     2.0243     7.1348 </r>
       <r>    -2.6451     0.9423     7.1917 </r>
       <r>    -2.5847     3.1674     7.3828 </r>
       <r>    -2.5244     3.1489     7.5728 </r>
       <r>    -2.4641     2.4001     7.7177 </r>
       <r>    -2.4037     2.2227     7.8519 </r>
       <r>    -2.3434     1.6870     7.9537 </r>
       <r>    -2.2831     0.7665     8.0000 </r>
       <r>    -2.2227     0.0000     8.0000 </r>
       <r>    -2.1624     0.0000     8.0000 </r>
       <r>    -2.1021     0.0000     8.0000 </r>
       <r>    -2.0417     0.0000     8.0000 </r>
       <r>    -1.9814     0.0000     8.0000 </r>
       <r>    -1.9211     0.0000     8.0000 </r>
       <r>    -1.8608     0.0000     8.0000 </r>
       <r>    -1.8004     0.3972     8.0240 </r>
       <r>    -1.7401     0.3007     8.0421 </r>
       <r>    -1.6798     2.3292     8.1827 </r>
       <r>    -1.6194     3.0306     8.3656 </r>
       <r>    -1.5591     2.0942     8.4920 </r>
       <r>    -1.4988     2.4104     8.6375 </r>
       <r>    -1.4384     2.6768     8.7990 </r>
       <r>    -1.3781     2.2316     8.9338 </r>
       <r>    -1.3178     1.9243     9.0499 </r>
       <r>    -1.2574     2.0515     9.1738 </r>
       <r>    -1.1971     4.1813     9.4261 </r>
       <r>    -1.1368     4.0922     9.6730 </r>
       <r>    -1.0764     4.9651     9.9727 </r>
       <r>    -1.0161     3.2023    10.1660 </r>
       <r>    -0.9558     3.0545    10.3503 </r>
       <r>    -0.8954     6.5796    10.7473 </r>
       <r>    -0.8351     5.5876    11.0846 </r>
       <r>    -0.7748     2.5818    11.2405 </r>
       <r>    -0.7145     2.4872    11.3906 </r>
       <r>    -0.6541     2.1781    11.5221 </r>
       <r>    -0.5938     3.8465    11.7542 </r>
       <r>    -0.5335     4.7551    12.0411 </r>
       <r>    -0.4731     2.7650    12.2081 </r>
       <r>    -0.4128     1.6854    12.3099 </r>
       <r>    -0.3525     1.7686    12.4166 </r>
       <r>    -0.2921     2.1585    12.5468 </r>
       <r>    -0.2318     1.1955    12.6190 </r>
       <r>    -0.1715     0.6905    12.6607 </r>
       <r>    -0.1111     2.0691    12.7855 </r>
       <r>    -0.0508     0.8946    12.8395 </r>
       <r>     0.0095     1.8300    12.9500 </r>
       <r>     0.0699     2.9085    13.1255 </r>
       <r>     0.1302     2.4465    13.2732 </r>
       <r>     0.1905     1.6573    13.3732 </r>
       <r>     0.2508     1.7144    13.4766 </r>
       <r>     0.3112     2.1459    13.6062 </r>
       <r>     0.3715     0.8318    13.6565 </r>
       <r>     0.4318     1.0844    13.7219 </r>
       <r>     0.4922     0.8549    13.7735 </r>
       <r>     0.5525     0.9195    13.8290 </r>
       <r>     0.6128     2.0181    13.9508 </r>
       <r>     0.6732     2.3698    14.0938 </r>
       <r>     0.7335     1.6785    14.1951 </r>
       <r>     0.7938     0.9032    14.2496 </r>
       <r>     0.8542     0.8018    14.2980 </r>
       <r>     0.9145     0.7576    14.3437 </r>
       <r>     0.9748     0.1093    14.3503 </r>
       <r>     1.0352     0.9212    14.4059 </r>
       <r>     1.0955     0.6529    14.4453 </r>
       <r>     1.1558     0.6522    14.4847 </r>
       <r>     1.2161     1.5119    14.5759 </r>
       <r>     1.2765     1.2567    14.6518 </r>
       <r>     1.3368     2.8670    14.8248 </r>
       <r>     1.3971     1.6899    14.9268 </r>
       <r>     1.4575     5.8554    15.2801 </r>
       <r>     1.5178     3.5706    15.4957 </r>
       <r>     1.5781     2.9193    15.6719 </r>
       <r>     1.6385     2.5443    15.8255 </r>
       <r>     1.6988     5.1101    16.1338 </r>
       <r>     1.7591     4.2600    16.3911 </r>
       <r>     1.8195     4.6996    16.6747 </r>
       <r>     1.8798     4.9342    16.9724 </r>
       <r>     1.9401     4.4235    17.2394 </r>
       <r>     2.0005     5.0169    17.5422 </r>
       <r>     2.0608     4.0356    17.7858 </r>
       <r>     2.1211     2.8648    17.9588 </r>
       <r>     2.1814     5.1901    18.2719 </r>
       <r>     2.2418     4.2814    18.5303 </r>
       <r>     2.3021     3.7320    18.7555 </r>
       <r>     2.3624     5.2753    19.0739 </r>
       <r>     2.4228     2.7030    19.2371 </r>
       <r>     2.4831     3.6757    19.4589 </r>
       <r>     2.5434     4.8971    19.7546 </r>
       <r>     2.6038     6.2580    20.1322 </r>
       <r>     2.6641     5.2700    20.4503 </r>
       <r>     2.7244     5.7674    20.7984 </r>
       <r>     2.7848     5.5585    21.1339 </r>
       <r>     2.8451     6.0624    21.4998 </r>
       <r>     2.9054     4.3675    21.7634 </r>
       <r>     2.9658     4.3932    22.0286 </r>
       <r>     3.0261     7.3875    22.4744 </r>
       <r>     3.0864     5.7775    22.8233 </r>
       <r>     3.1468     7.1158    23.2528 </r>
       <r>     3.2071     7.3412    23.6959 </r>
       <r>     3.2674     3.6540    23.9166 </r>
       <r>     3.3277     4.6472    24.1971 </r>
       <r>     3.3881     4.7494    24.4837 </r>
       <r>     3.4484     4.5515    24.7584 </r>
       <r>     3.5087     7.7061    25.2234 </r>
       <r>     3.5691     7.4418    25.6726 </r>
       <r>     3.6294     5.1507    25.9835 </r>
       <r>     3.6897     7.0076    26.4064 </r>
       <r>     3.7501     3.9953    26.6475 </r>
       <r>     3.8104     3.6375    26.8671 </r>
       <r>     3.8707     4.4060    27.1330 </r>
       <r>     3.9311     3.9338    27.3704 </r>
       <r>     3.9914     5.5518    27.7055 </r>
       <r>     4.0517     4.2359    27.9612 </r>
       <r>     4.1121     5.0907    28.2685 </r>
       <r>     4.1724     5.4439    28.5971 </r>
       <r>     4.2327     5.2656    28.9149 </r>
       <r>     4.2930     5.2352    29.2308 </r>
       <r>     4.3534     4.8758    29.5250 </r>
       <r>     4.4137     2.1093    29.6525 </r>
       <r>     4.4740     2.3335    29.7934 </r>
       <r>     4.5344     4.4255    30.0604 </r>
       <r>     4.5947     4.9290    30.3578 </r>
       <r>     4.6550     3.1158    30.5459 </r>
       <r>     4.7154     2.3358    30.6869 </r>
       <r>     4.7757     4.0083    30.9288 </r>
       <r>     4.8360     1.6813    31.0303 </r>
       <r>     4.8964     2.4482    31.1781 </r>
       <r>     4.9567     2.1616    31.3086 </r>
       <r>     5.0170     1.5153    31.4000 </r>
       <r>     5.0774     1.4547    31.4878 </r>
       <r>     5.1377     1.3780    31.5710 </r>
       <r>     5.1980     1.2439    31.6461 </r>
       <r>     5.2583     1.4264    31.7322 </r>
       <r>     5.3187     1.0538    31.7958 </r>
       <r>     5.3790     1.1728    31.8666 </r>
       <r>     5.4393     0.5266    31.8984 </r>
       <r>     5.4997     0.1294    31.9062 </r>
       <r>     5.5600     0.3976    31.9302 </r>
       <r>     5.6203     0.5077    31.9609 </r>
       <r>     5.6807     0.2600    31.9766 </r>
       <r>     5.7410     0.0000    31.9766 </r>
       <r>     5.8013     0.3890    32.0000 </r>
       <r>     5.8617    -0.0008    32.0000 </r>
       <r>     5.9220     0.0000    32.0000 </r>
       <r>     5.9823     0.0000    32.0000 </r>
       <r>     6.0427     0.0000    32.0000 </r>
       <r>     6.1030     0.0000    32.0000 </r>
       <r>     6.1633     0.0000    32.0000 </r>
       <r>     6.2236     0.0005    32.0000 </r>
       <r>     6.2840     0.6055    32.0366 </r>
       <r>     6.3443     1.0665    32.1009 </r>
       <r>     6.4046     1.0627    32.1650 </r>
       <r>     6.4650     0.8048    32.2136 </r>
       <r>     6.5253     1.1089    32.2805 </r>
       <r>     6.5856     0.7871    32.3281 </r>
       <r>     6.6460     0.6978    32.3702 </r>
       <r>     6.7063     2.3367    32.5112 </r>
       <r>     6.7666     2.9279    32.6879 </r>
       <r>     6.8270     1.7208    32.7919 </r>
       <r>     6.8873     2.1194    32.9198 </r>
       <r>     6.9476     0.9983    32.9800 </r>
       <r>     7.0080     2.8342    33.1510 </r>
       <r>     7.0683     3.3577    33.3537 </r>
       <r>     7.1286     5.0851    33.6605 </r>
       <r>     7.1890     2.8194    33.8307 </r>
       <r>     7.2493     1.2589    33.9067 </r>
       <r>     7.3096     3.4116    34.1126 </r>
       <r>     7.3699     3.5459    34.3267 </r>
       <r>     7.4303     3.7911    34.5556 </r>
       <r>     7.4906     5.0809    34.8622 </r>
       <r>     7.5509     2.3830    35.0060 </r>
       <r>     7.6113     4.0897    35.2528 </r>
       <r>     7.6716     5.5389    35.5871 </r>
       <r>     7.7319     9.6284    36.1683 </r>
       <r>     7.7923     7.8242    36.6404 </r>
       <r>     7.8526     6.8802    37.0556 </r>
       <r>     7.9129     5.2670    37.3735 </r>
       <r>     7.9733     4.3460    37.6358 </r>
       <r>     8.0336     4.6000    37.9136 </r>
       <r>     8.0939     5.0055    38.2158 </r>
       <r>     8.1543     5.8034    38.5660 </r>
       <r>     8.2146     4.9225    38.8630 </r>
       <r>     8.2749     6.2634    39.2411 </r>
       <r>     8.3352     5.6671    39.5832 </r>
       <r>     8.3956     4.7889    39.8723 </r>
       <r>     8.4559     3.0470    40.0562 </r>
       <r>     8.5162     3.5757    40.2721 </r>
       <r>     8.5766     3.8961    40.5071 </r>
       <r>     8.6369     4.1834    40.7596 </r>
       <r>     8.6972     4.1593    41.0106 </r>
       <r>     8.7576     6.1088    41.3792 </r>
       <r>     8.8179     6.9315    41.7976 </r>
       <r>     8.8782     8.8002    42.3287 </r>
       <r>     8.9386     8.1754    42.8222 </r>
       <r>     8.9989     7.7063    43.2872 </r>
       <r>     9.0592     5.5742    43.6238 </r>
       <r>     9.1196     5.2344    43.9398 </r>
       <r>     9.1799     5.4417    44.2681 </r>
       <r>     9.2402     3.8722    44.5019 </r>
       <r>     9.3005     5.5391    44.8362 </r>
       <r>     9.3609     6.0120    45.1990 </r>
       <r>     9.4212     4.8920    45.4943 </r>
       <r>     9.4815     7.1638    45.9267 </r>
       <r>     9.5419     4.3068    46.1869 </r>
       <r>     9.6022     4.0650    46.4323 </r>
       <r>     9.6625     2.7688    46.5994 </r>
       <r>     9.7229     3.8594    46.8323 </r>
       <r>     9.7832     3.2429    47.0281 </r>
       <r>     9.8435     3.3120    47.2280 </r>
       <r>     9.9039     3.5845    47.4443 </r>
       <r>     9.9642     3.5126    47.6564 </r>
       <r>    10.0245     2.6735    47.8178 </r>
       <r>    10.0849     1.1779    47.8890 </r>
       <r>    10.1452     1.4007    47.9735 </r>
       <r>    10.2055     0.3084    47.9922 </r>
       <r>    10.2658     0.0006    47.9922 </r>
       <r>    10.3262     0.1289    48.0000 </r>
       <r>    10.3865     0.0000    48.0000 </r>
       <r>    10.4468     0.0000    48.0000 </r>
       <r>    10.5072     0.0000    48.0000 </r>
       <r>    10.5675     0.0000    48.0000 </r>
       <r>    10.6278     0.0000    48.0000 </r>
       <r>    10.6882     0.0000    48.0000 </r>
       <r>    10.7485     0.0000    48.0000 </r>
       <r>    10.8088     0.0000    48.0000 </r>
       <r>    10.8692     0.0000    48.0000 </r>
       <r>    10.9295     0.0000    48.0000 </r>
       <r>    10.9898     0.0000    48.0000 </r>
       <r>    11.0502     0.0000    48.0000 </r>
       <r>    11.1105     0.0000    48.0000 </r>
      </set>
     </set>
    </array>
   </total>
  </dos>
 </calculation>
 <structure name="finalpos" >
  <crystal>
   <varray name="basis" >
    <v>       5.46906415       0.00000000       0.00000000 </v>
    <v>       0.00000000       5.46906415       0.00000000 </v>
    <v>       0.00000000       0.00000000       5.46906415 </v>
   </varray>
   <i name="volume">    163.58333295 </i>
   <varray name="rec_basis" >
    <v>       0.18284664       0.00000000       0.00000000 </v>
    <v>       0.00000000       0.18284664       0.00000000 </v>
    <v>       0.00000000       0.00000000       0.18284664 </v>
   </varray>
  </crystal>
  <varray name="positions" >
   <v>       0.13556270       0.99803836       0.07771863 </v>
   <v>       0.40083445       0.25015169       0.33548678 </v>
   <v>       0.66392555       0.50513489       0.10788032 </v>
   <v>       0.88581459       0.78215656       0.35278920 </v>
   <v>       0.62696560       0.99932176       0.58660762 </v>
   <v>       0.91391782       0.25733539       0.83028040 </v>
   <v>       0.14866214       0.50524666       0.58554404 </v>
   <v>       0.40738452       0.73960693       0.85175767 </v>
  </varray>
 </structure>
</modeling>
