<?xml version="1.0" encoding="ISO-8859-1"?>
<modeling>
 <generator>
  <i name="program" type="string">vasp </i>
  <i name="version" type="string">5.4.1  </i>
  <i name="subversion" type="string">24Jun15 (build Jul  8 2015 13:29:37) complex                          parallel </i>
  <i name="platform" type="string">FX10FRT </i>
  <i name="date" type="string">2016 02 20 </i>
  <i name="time" type="string">07:14:06 </i>
 </generator>
 <incar>
  <i type="string" name="PREC">accurate</i>
  <i type="string" name="ALGO"> Normal</i>
  <i type="int" name="ISPIN">     1</i>
  <i type="int" name="IBRION">    -1</i>
  <i name="EDIFF">      0.00010000</i>
  <i type="int" name="NSW">     0</i>
  <i type="int" name="ISIF">     2</i>
  <i name="ENCUT">    400.00000000</i>
  <i type="int" name="ISMEAR">     2</i>
  <i name="SIGMA">      0.10000000</i>
  <i type="int" name="NWRITE">     1</i>
  <v type="int" name="KPOINT_BSE">    -1     0     0     0</v>
 </incar>
 <kpoints>
  <generation param="Monkhorst-Pack">
   <v type="int" name="divisions">      12       12       12 </v>
   <v name="usershift">      0.00000000       0.00000000       0.00000000 </v>
   <v name="genvec1">      0.08333333       0.00000000       0.00000000 </v>
   <v name="genvec2">      0.00000000       0.08333333       0.00000000 </v>
   <v name="genvec3">      0.00000000       0.00000000       0.08333333 </v>
   <v name="shift">      0.50000000       0.50000000       0.50000000 </v>
  </generation>
  <varray name="kpointlist" >
   <v>       0.04166667       0.04166667       0.04166667 </v>
   <v>       0.12500000       0.04166667       0.04166667 </v>
   <v>       0.20833333       0.04166667       0.04166667 </v>
   <v>       0.29166667       0.04166667       0.04166667 </v>
   <v>       0.37500000       0.04166667       0.04166667 </v>
   <v>       0.45833333       0.04166667       0.04166667 </v>
   <v>       0.12500000       0.12500000       0.04166667 </v>
   <v>       0.20833333       0.12500000       0.04166667 </v>
   <v>       0.29166667       0.12500000       0.04166667 </v>
   <v>       0.37500000       0.12500000       0.04166667 </v>
   <v>       0.45833333       0.12500000       0.04166667 </v>
   <v>       0.20833333       0.20833333       0.04166667 </v>
   <v>       0.29166667       0.20833333       0.04166667 </v>
   <v>       0.37500000       0.20833333       0.04166667 </v>
   <v>       0.45833333       0.20833333       0.04166667 </v>
   <v>       0.29166667       0.29166667       0.04166667 </v>
   <v>       0.37500000       0.29166667       0.04166667 </v>
   <v>       0.45833333       0.29166667       0.04166667 </v>
   <v>       0.37500000       0.37500000       0.04166667 </v>
   <v>       0.45833333       0.37500000       0.04166667 </v>
   <v>       0.45833333       0.45833333       0.04166667 </v>
   <v>       0.12500000       0.12500000       0.12500000 </v>
   <v>       0.20833333       0.12500000       0.12500000 </v>
   <v>       0.29166667       0.12500000       0.12500000 </v>
   <v>       0.37500000       0.12500000       0.12500000 </v>
   <v>       0.45833333       0.12500000       0.12500000 </v>
   <v>       0.20833333       0.20833333       0.12500000 </v>
   <v>       0.29166667       0.20833333       0.12500000 </v>
   <v>       0.37500000       0.20833333       0.12500000 </v>
   <v>       0.45833333       0.20833333       0.12500000 </v>
   <v>       0.29166667       0.29166667       0.12500000 </v>
   <v>       0.37500000       0.29166667       0.12500000 </v>
   <v>       0.45833333       0.29166667       0.12500000 </v>
   <v>       0.37500000       0.37500000       0.12500000 </v>
   <v>       0.45833333       0.37500000       0.12500000 </v>
   <v>       0.45833333       0.45833333       0.12500000 </v>
   <v>       0.20833333       0.20833333       0.20833333 </v>
   <v>       0.29166667       0.20833333       0.20833333 </v>
   <v>       0.37500000       0.20833333       0.20833333 </v>
   <v>       0.45833333       0.20833333       0.20833333 </v>
   <v>       0.29166667       0.29166667       0.20833333 </v>
   <v>       0.37500000       0.29166667       0.20833333 </v>
   <v>       0.45833333       0.29166667       0.20833333 </v>
   <v>       0.37500000       0.37500000       0.20833333 </v>
   <v>       0.45833333       0.37500000       0.20833333 </v>
   <v>       0.45833333       0.45833333       0.20833333 </v>
   <v>       0.29166667       0.29166667       0.29166667 </v>
   <v>       0.37500000       0.29166667       0.29166667 </v>
   <v>       0.45833333       0.29166667       0.29166667 </v>
   <v>       0.37500000       0.37500000       0.29166667 </v>
   <v>       0.45833333       0.37500000       0.29166667 </v>
   <v>       0.45833333       0.45833333       0.29166667 </v>
   <v>       0.37500000       0.37500000       0.37500000 </v>
   <v>       0.45833333       0.37500000       0.37500000 </v>
   <v>       0.45833333       0.45833333       0.37500000 </v>
   <v>       0.45833333       0.45833333       0.45833333 </v>
  </varray>
  <varray name="weights" >
   <v>       0.00462963 </v>
   <v>       0.01388889 </v>
   <v>       0.01388889 </v>
   <v>       0.01388889 </v>
   <v>       0.01388889 </v>
   <v>       0.01388889 </v>
   <v>       0.01388889 </v>
   <v>       0.02777778 </v>
   <v>       0.02777778 </v>
   <v>       0.02777778 </v>
   <v>       0.02777778 </v>
   <v>       0.01388889 </v>
   <v>       0.02777778 </v>
   <v>       0.02777778 </v>
   <v>       0.02777778 </v>
   <v>       0.01388889 </v>
   <v>       0.02777778 </v>
   <v>       0.02777778 </v>
   <v>       0.01388889 </v>
   <v>       0.02777778 </v>
   <v>       0.01388889 </v>
   <v>       0.00462963 </v>
   <v>       0.01388889 </v>
   <v>       0.01388889 </v>
   <v>       0.01388889 </v>
   <v>       0.01388889 </v>
   <v>       0.01388889 </v>
   <v>       0.02777778 </v>
   <v>       0.02777778 </v>
   <v>       0.02777778 </v>
   <v>       0.01388889 </v>
   <v>       0.02777778 </v>
   <v>       0.02777778 </v>
   <v>       0.01388889 </v>
   <v>       0.02777778 </v>
   <v>       0.01388889 </v>
   <v>       0.00462963 </v>
   <v>       0.01388889 </v>
   <v>       0.01388889 </v>
   <v>       0.01388889 </v>
   <v>       0.01388889 </v>
   <v>       0.02777778 </v>
   <v>       0.02777778 </v>
   <v>       0.01388889 </v>
   <v>       0.02777778 </v>
   <v>       0.01388889 </v>
   <v>       0.00462963 </v>
   <v>       0.01388889 </v>
   <v>       0.01388889 </v>
   <v>       0.01388889 </v>
   <v>       0.02777778 </v>
   <v>       0.01388889 </v>
   <v>       0.00462963 </v>
   <v>       0.01388889 </v>
   <v>       0.01388889 </v>
   <v>       0.00462963 </v>
  </varray>
 </kpoints>
 <parameters>
  <separator name="general" >
   <i type="string" name="SYSTEM">unknown system</i>
   <i type="logical" name="LCOMPAT"> F  </i>
  </separator>
  <separator name="electronic" >
   <i type="string" name="PREC">accura</i>
   <i name="ENMAX">    400.00000000</i>
   <i name="ENAUG">    322.06900000</i>
   <i name="EDIFF">      0.00010000</i>
   <i type="int" name="IALGO">    38</i>
   <i type="int" name="IWAVPR">    10</i>
   <i type="int" name="NBANDS">    16</i>
   <i name="NELECT">     16.00000000</i>
   <i type="int" name="TURBO">     0</i>
   <i type="int" name="IRESTART">     0</i>
   <i type="int" name="NREBOOT">     0</i>
   <i type="int" name="NMIN">     0</i>
   <i name="EREF">      0.00000000</i>
   <separator name="electronic smearing" >
    <i type="int" name="ISMEAR">     2</i>
    <i name="SIGMA">      0.10000000</i>
    <i name="KSPACING">      0.50000000</i>
    <i type="logical" name="KGAMMA"> T  </i>
   </separator>
   <separator name="electronic projectors" >
    <i type="logical" name="LREAL"> F  </i>
    <v name="ROPT">      0.00000000</v>
    <i type="int" name="LMAXPAW">  -100</i>
    <i type="int" name="LMAXMIX">     2</i>
    <i type="logical" name="NLSPLINE"> F  </i>
   </separator>
   <separator name="electronic startup" >
    <i type="int" name="ISTART">     0</i>
    <i type="int" name="ICHARG">     2</i>
    <i type="int" name="INIWAV">     1</i>
   </separator>
   <separator name="electronic spin" >
    <i type="int" name="ISPIN">     1</i>
    <i type="logical" name="LNONCOLLINEAR"> F  </i>
    <v name="MAGMOM">      1.00000000      1.00000000      1.00000000      1.00000000</v>
    <i name="NUPDOWN">     -1.00000000</i>
    <i type="logical" name="LSORBIT"> F  </i>
    <v name="SAXIS">      0.00000000      0.00000000      1.00000000</v>
    <i type="logical" name="LSPIRAL"> F  </i>
    <v name="QSPIRAL">      0.00000000      0.00000000      0.00000000</v>
    <i type="logical" name="LZEROZ"> F  </i>
   </separator>
   <separator name="electronic exchange-correlation" >
    <i type="logical" name="LASPH"> F  </i>
    <i type="logical" name="LMETAGGA"> F  </i>
   </separator>
   <separator name="electronic convergence" >
    <i type="int" name="NELM">    60</i>
    <i type="int" name="NELMDL">    -5</i>
    <i type="int" name="NELMIN">     2</i>
    <i name="ENINI">    400.00000000</i>
    <separator name="electronic convergence detail" >
     <i type="logical" name="LDIAG"> T  </i>
     <i type="logical" name="LSUBROT"> F  </i>
     <i name="WEIMIN">      0.00000000</i>
     <i name="EBREAK">      0.00000156</i>
     <i name="DEPER">      0.30000000</i>
     <i type="int" name="NRMM">     4</i>
     <i name="TIME">      0.40000000</i>
    </separator>
   </separator>
   <separator name="electronic mixer" >
    <i name="AMIX">      0.40000000</i>
    <i name="BMIX">      1.00000000</i>
    <i name="AMIN">      0.10000000</i>
    <i name="AMIX_MAG">      1.60000000</i>
    <i name="BMIX_MAG">      1.00000000</i>
    <separator name="electronic mixer details" >
     <i type="int" name="IMIX">     4</i>
     <i type="logical" name="MIXFIRST"> F  </i>
     <i type="int" name="MAXMIX">   -45</i>
     <i name="WC">    100.00000000</i>
     <i type="int" name="INIMIX">     1</i>
     <i type="int" name="MIXPRE">     1</i>
     <i type="int" name="MREMOVE">     5</i>
    </separator>
   </separator>
   <separator name="electronic dipolcorrection" >
    <i type="logical" name="LDIPOL"> F  </i>
    <i type="logical" name="LMONO"> F  </i>
    <i type="int" name="IDIPOL">     0</i>
    <i name="EPSILON">      1.00000000</i>
    <v name="DIPOL">   -100.00000000   -100.00000000   -100.00000000</v>
    <i name="EFIELD">      0.00000000</i>
   </separator>
  </separator>
  <separator name="grids" >
   <i type="int" name="NGX">    28</i>
   <i type="int" name="NGY">    28</i>
   <i type="int" name="NGZ">    28</i>
   <i type="int" name="NGXF">    56</i>
   <i type="int" name="NGYF">    56</i>
   <i type="int" name="NGZF">    56</i>
   <i type="logical" name="ADDGRID"> F  </i>
  </separator>
  <separator name="ionic" >
   <i type="int" name="NSW">     0</i>
   <i type="int" name="IBRION">    -1</i>
   <i type="int" name="ISIF">     2</i>
   <i name="PSTRESS">      0.00000000</i>
   <i name="EDIFFG">      0.00100000</i>
   <i type="int" name="NFREE">     0</i>
   <i name="POTIM">      0.50000000</i>
   <i name="SMASS">     -3.00000000</i>
   <i name="SCALEE">      1.00000000</i>
  </separator>
  <separator name="ionic md" >
   <i name="TEBEG">      0.00010000</i>
   <i name="TEEND">      0.00010000</i>
   <i type="int" name="NBLOCK">     1</i>
   <i type="int" name="KBLOCK">     1</i>
   <i type="int" name="NPACO">   256</i>
   <i name="APACO">     16.00000000</i>
  </separator>
  <separator name="symmetry" >
   <i type="int" name="ISYM">     2</i>
   <i name="SYMPREC">      0.00001000</i>
  </separator>
  <separator name="dos" >
   <i type="logical" name="LORBIT"> F  </i>
   <v name="RWIGS">     -1.00000000</v>
   <i type="int" name="NEDOS">   301</i>
   <i name="EMIN">     10.00000000</i>
   <i name="EMAX">    -10.00000000</i>
   <i name="EFERMI">      0.00000000</i>
  </separator>
  <separator name="writing" >
   <i type="int" name="NWRITE">     1</i>
   <i type="logical" name="LWAVE"> T  </i>
   <i type="logical" name="LCHARG"> T  </i>
   <i type="logical" name="LPARD"> F  </i>
   <i type="logical" name="LVTOT"> F  </i>
   <i type="logical" name="LVHAR"> F  </i>
   <i type="logical" name="LELF"> F  </i>
   <i type="logical" name="LOPTICS"> F  </i>
   <v name="STM">      0.00000000      0.00000000      0.00000000      0.00000000      0.00000000      0.00000000      0.00000000</v>
  </separator>
  <separator name="performance" >
   <i type="int" name="NPAR">     8</i>
   <i type="int" name="NSIM">     4</i>
   <i type="int" name="NBLK">    -1</i>
   <i type="logical" name="LPLANE"> T  </i>
   <i type="logical" name="LSCALAPACK"> T  </i>
   <i type="logical" name="LSCAAWARE"> F  </i>
   <i type="logical" name="LSCALU"> F  </i>
   <i type="logical" name="LASYNC"> F  </i>
   <i type="logical" name="LORBITALREAL"> F  </i>
  </separator>
  <separator name="miscellaneous" >
   <i type="int" name="IDIOT">     3</i>
   <i type="logical" name="LMUSIC"> F  </i>
   <v name="POMASS">     28.08500000</v>
   <v name="DARWINR">      0.00000000</v>
   <v name="DARWINV">      1.00000000</v>
   <i type="logical" name="LCORR"> T  </i>
  </separator>
  <i type="logical" name="GGA_COMPAT"> T  </i>
  <i type="logical" name="LBERRY"> F  </i>
  <i type="int" name="ICORELEVEL">     0</i>
  <i type="logical" name="LDAU"> F  </i>
  <i type="int" name="I_CONSTRAINED_M">     0</i>
  <separator name="electronic exchange-correlation" >
   <i type="string" name="GGA">--</i>
   <i type="int" name="VOSKOWN">     0</i>
   <i type="logical" name="LHFCALC"> F  </i>
   <i type="string" name="PRECFOCK"></i>
   <i type="logical" name="LSYMGRAD"> F  </i>
   <i type="logical" name="LHFONE"> F  </i>
   <i type="logical" name="LRHFCALC"> F  </i>
   <i type="logical" name="LTHOMAS"> F  </i>
   <i type="logical" name="LMODELHF"> F  </i>
   <i name="ENCUT4O">     -1.00000000</i>
   <i type="int" name="EXXOEP">     0</i>
   <i type="int" name="FOURORBIT">     0</i>
   <i name="AEXX">      0.00000000</i>
   <i name="HFALPHA">      0.00000000</i>
   <i name="MCALPHA">      0.00000000</i>
   <i name="ALDAX">      1.00000000</i>
   <i name="AGGAX">      1.00000000</i>
   <i name="ALDAC">      1.00000000</i>
   <i name="AGGAC">      1.00000000</i>
   <i type="int" name="NKREDX">     1</i>
   <i type="int" name="NKREDY">     1</i>
   <i type="int" name="NKREDZ">     1</i>
   <i type="logical" name="SHIFTRED"> F  </i>
   <i type="logical" name="ODDONLY"> F  </i>
   <i type="logical" name="EVENONLY"> F  </i>
   <i type="int" name="LMAXFOCK">     0</i>
   <i type="int" name="NMAXFOCKAE">     0</i>
   <i type="logical" name="LFOCKAEDFT"> F  </i>
   <i name="HFSCREEN">      0.00000000</i>
   <i name="HFSCREENC">      0.00000000</i>
   <i type="int" name="NBANDSGWLOW">     0</i>
  </separator>
  <separator name="vdW DFT" >
   <i type="logical" name="LUSE_VDW"> F  </i>
   <i name="Zab_VDW">     -0.84910000</i>
   <i name="PARAM1">      0.12340000</i>
   <i name="PARAM2">      1.00000000</i>
   <i name="PARAM3">      0.00000000</i>
  </separator>
  <separator name="model GW" >
   <i type="int" name="MODEL_GW">     0</i>
   <i name="MODEL_EPS0">      8.94056462</i>
   <i name="MODEL_ALPHA">      1.00000000</i>
  </separator>
  <separator name="linear response parameters" >
   <i type="logical" name="LEPSILON"> F  </i>
   <i type="logical" name="LRPA"> F  </i>
   <i type="logical" name="LNABLA"> F  </i>
   <i type="logical" name="LVEL"> F  </i>
   <i type="int" name="KINTER">     0</i>
   <i name="CSHIFT">      0.10000000</i>
   <i name="OMEGAMAX">     -1.00000000</i>
   <i name="DEG_THRESHOLD">      0.00200000</i>
  </separator>
  <separator name="orbital magnetization" >
   <i type="logical" name="NUCIND"> F  </i>
   <v name="MAGPOS">      0.00000000      0.00000000      0.00000000</v>
   <i type="logical" name="LNICSALL"> T  </i>
   <i type="logical" name="ORBITALMAG"> F  </i>
   <i type="logical" name="LMAGBLOCH"> F  </i>
   <i type="logical" name="LCHIMAG"> F  </i>
   <i type="logical" name="LGAUGE"> T  </i>
   <i type="int" name="MAGATOM">     0</i>
   <v name="MAGDIPOL">      0.00000000      0.00000000      0.00000000</v>
   <v name="AVECCONST">      0.00000000      0.00000000      0.00000000</v>
  </separator>
  <separator name="response functions" >
   <i type="logical" name="LADDER"> F  </i>
   <i type="logical" name="LFXC"> F  </i>
   <i type="logical" name="LHARTREE"> T  </i>
   <i type="int" name="IBSE">     0</i>
   <v type="int" name="KPOINT">    -1     0     0     0</v>
   <i type="logical" name="LTCTE"> F  </i>
   <i type="logical" name="LTETE"> F  </i>
   <i type="logical" name="LTRIPLET"> F  </i>
   <i type="logical" name="LFXCEPS"> F  </i>
   <i type="logical" name="LFXHEG"> F  </i>
   <i type="int" name="NATURALO">     0</i>
   <i type="logical" name="L2ORDER"> F  </i>
   <i type="logical" name="LUSEW"> F  </i>
   <i name="ENCUTGW">     -2.00000000</i>
   <i name="ENCUTGWSOFT">     -2.00000000</i>
   <i name="ENCUTLF">     -1.00000000</i>
   <i type="int" name="LMAXMP2">    -1</i>
   <i name="SCISSOR">      0.00000000</i>
   <i type="int" name="NOMEGA">     0</i>
   <i type="int" name="NOMEGAR">     0</i>
   <i type="int" name="NBANDSGW">    -1</i>
   <i type="int" name="NBANDSO">    -1</i>
   <i type="int" name="NBANDSV">    -1</i>
   <i type="int" name="NELM">     1</i>
   <i type="int" name="NELMHF">     1</i>
   <i type="int" name="DIM">     3</i>
   <i type="int" name="ANTIRES">     0</i>
   <i name="OMEGAMAX">    -30.00000000</i>
   <i name="OMEGAMIN">    -30.00000000</i>
   <i name="OMEGATL">   -200.00000000</i>
   <i type="int" name="OMEGAGRID">     0</i>
   <i name="CSHIFT">     -0.10000000</i>
   <i type="logical" name="SELFENERGY"> F  </i>
   <i type="logical" name="LSPECTRAL"> F  </i>
   <i type="logical" name="LSPECTRALGW"> F  </i>
   <i type="logical" name="LSINGLES"> F  </i>
   <i type="logical" name="LFERMIGW"> F  </i>
   <i type="logical" name="ODDONLYGW"> F  </i>
   <i type="logical" name="EVENONLYGW"> F  </i>
   <i type="int" name="NKREDLFX">     1</i>
   <i type="int" name="NKREDLFY">     1</i>
   <i type="int" name="NKREDLFZ">     1</i>
   <i type="int" name="MAXMEM">  1800</i>
   <i type="int" name="TELESCOPE">     0</i>
   <i type="int" name="TAUPAR">     1</i>
   <i type="int" name="OMEGAPAR">    -1</i>
   <i name="LAMBDA">      1.00000000</i>
  </separator>
  <separator name="External order field" >
   <i name="OFIELD_KAPPA">      0.00000000</i>
   <v name="OFIELD_K">      0.00000000      0.00000000      0.00000000</v>
   <i name="OFIELD_Q6_NEAR">      0.00000000</i>
   <i name="OFIELD_Q6_FAR">      0.00000000</i>
   <i name="OFIELD_A">      0.00000000</i>
  </separator>
 </parameters>
 <atominfo>
  <atoms>       4 </atoms>
  <types>       1 </types>
  <array name="atoms" >
   <dimension dim="1">ion</dimension>
   <field type="string">element</field>
   <field type="int">atomtype</field>
   <set>
    <rc><c>Si</c><c>   1</c></rc>
    <rc><c>Si</c><c>   1</c></rc>
    <rc><c>Si</c><c>   1</c></rc>
    <rc><c>Si</c><c>   1</c></rc>
   </set>
  </array>
  <array name="atomtypes" >
   <dimension dim="1">type</dimension>
   <field type="int">atomspertype</field>
   <field type="string">element</field>
   <field>mass</field>
   <field>valence</field>
   <field type="string">pseudopotential</field>
   <set>
    <rc><c>   4</c><c>Si</c><c>     28.08500000</c><c>      4.00000000</c><c>  PAW_PBE Si 05Jan2001                  </c></rc>
   </set>
  </array>
 </atominfo>
 <structure name="initialpos" >
  <crystal>
   <varray name="basis" >
    <v>       3.90623076       0.00000000       0.00000000 </v>
    <v>       0.00000000       3.90623076       0.00000000 </v>
    <v>       0.00000000       0.00000000       3.90623076 </v>
   </varray>
   <i name="volume">     59.60376414 </i>
   <varray name="rec_basis" >
    <v>       0.25600126       0.00000000       0.00000000 </v>
    <v>       0.00000000       0.25600126       0.00000000 </v>
    <v>       0.00000000       0.00000000       0.25600126 </v>
   </varray>
  </crystal>
  <varray name="positions" >
   <v>       0.00000000       0.00000000       0.00000000 </v>
   <v>       0.50000000       0.50000000       0.00000000 </v>
   <v>       0.50000000       0.00000000       0.50000000 </v>
   <v>       0.00000000       0.50000000       0.50000000 </v>
  </varray>
 </structure>
 <calculation>
  <scstep>
   <time name="dav">    0.64    0.68</time>
   <time name="total">    0.68    0.75</time>
   <energy>
    <i name="alphaZ">      9.03651138 </i>
    <i name="ewald">   -540.84701312 </i>
    <i name="hartreedc">     -2.65644134 </i>
    <i name="XCdc">    -35.53346257 </i>
    <i name="pawpsdc">    352.49519846 </i>
    <i name="pawaedc">   -282.12207116 </i>
    <i name="eentropy">     -0.00017966 </i>
    <i name="bandstr">    101.83838279 </i>
    <i name="atom">    412.26298491 </i>
    <i name="e_fr_energy">     14.47390970 </i>
    <i name="e_wo_entrp">     14.47408935 </i>
    <i name="e_0_energy">     14.47395461 </i>
   </energy>
  </scstep>
  <scstep>
   <time name="dav">    0.77    0.78</time>
   <time name="total">    0.78    0.81</time>
   <energy>
    <i name="e_fr_energy">    -18.58909771 </i>
    <i name="e_wo_entrp">    -18.59003437 </i>
    <i name="e_0_energy">    -18.58933187 </i>
   </energy>
  </scstep>
  <scstep>
   <time name="dav">    0.76    0.75</time>
   <time name="total">    0.76    0.77</time>
   <energy>
    <i name="e_fr_energy">    -19.60012130 </i>
    <i name="e_wo_entrp">    -19.60036335 </i>
    <i name="e_0_energy">    -19.60018181 </i>
   </energy>
  </scstep>
  <scstep>
   <time name="dav">    0.73    0.73</time>
   <time name="total">    0.74    0.75</time>
   <energy>
    <i name="e_fr_energy">    -19.60495864 </i>
    <i name="e_wo_entrp">    -19.60517836 </i>
    <i name="e_0_energy">    -19.60501357 </i>
   </energy>
  </scstep>
  <scstep>
   <time name="dav">    0.74    0.74</time>
   <time name="total">    0.78    0.81</time>
   <energy>
    <i name="e_fr_energy">    -19.60499103 </i>
    <i name="e_wo_entrp">    -19.60521055 </i>
    <i name="e_0_energy">    -19.60504591 </i>
   </energy>
  </scstep>
  <scstep>
   <time name="dav">    0.70    0.70</time>
   <time name="total">    0.76    0.77</time>
   <energy>
    <i name="e_fr_energy">    -19.55597936 </i>
    <i name="e_wo_entrp">    -19.55604360 </i>
    <i name="e_0_energy">    -19.55599542 </i>
   </energy>
  </scstep>
  <scstep>
   <time name="dav">    0.65    0.65</time>
   <time name="total">    0.72    0.72</time>
   <energy>
    <i name="e_fr_energy">    -19.52836264 </i>
    <i name="e_wo_entrp">    -19.52825594 </i>
    <i name="e_0_energy">    -19.52833596 </i>
   </energy>
  </scstep>
  <scstep>
   <time name="dav">    0.77    0.78</time>
   <time name="total">    0.82    0.84</time>
   <energy>
    <i name="e_fr_energy">    -19.52818628 </i>
    <i name="e_wo_entrp">    -19.52808080 </i>
    <i name="e_0_energy">    -19.52815991 </i>
   </energy>
  </scstep>
  <scstep>
   <time name="dav">    0.49    0.48</time>
   <time name="total">    0.51    0.52</time>
   <energy>
    <i name="alphaZ">      9.03651138 </i>
    <i name="ewald">   -540.84701312 </i>
    <i name="hartreedc">     -1.96965339 </i>
    <i name="XCdc">    -35.35162479 </i>
    <i name="pawpsdc">   1111.03654231 </i>
    <i name="pawaedc">  -1040.67609345 </i>
    <i name="eentropy">     -0.00010586 </i>
    <i name="bandstr">     66.98026426 </i>
    <i name="atom">    412.26298491 </i>
    <i name="e_fr_energy">    -19.52818776 </i>
    <i name="e_wo_entrp">    -19.52808189 </i>
    <i name="e_0_energy">    -19.52816129 </i>
   </energy>
  </scstep>
  <structure>
   <crystal>
    <varray name="basis" >
     <v>       3.90623076       0.00000000       0.00000000 </v>
     <v>       0.00000000       3.90623076       0.00000000 </v>
     <v>       0.00000000       0.00000000       3.90623076 </v>
    </varray>
    <i name="volume">     59.60376414 </i>
    <varray name="rec_basis" >
     <v>       0.25600126       0.00000000       0.00000000 </v>
     <v>       0.00000000       0.25600126       0.00000000 </v>
     <v>       0.00000000       0.00000000       0.25600126 </v>
    </varray>
   </crystal>
   <varray name="positions" >
    <v>       0.00000000       0.00000000       0.00000000 </v>
    <v>       0.50000000       0.50000000       0.00000000 </v>
    <v>       0.50000000       0.00000000       0.50000000 </v>
    <v>       0.00000000       0.50000000       0.50000000 </v>
   </varray>
  </structure>
  <varray name="forces" >
   <v>       0.00000000       0.00000000       0.00000000 </v>
   <v>       0.00000000       0.00000000       0.00000000 </v>
   <v>       0.00000000       0.00000000       0.00000000 </v>
   <v>       0.00000000       0.00000000       0.00000000 </v>
  </varray>
  <varray name="stress" >
   <v>     -21.40798314       0.00000000       0.00000000 </v>
   <v>       0.00000000     -21.40798314       0.00000000 </v>
   <v>       0.00000000       0.00000000     -21.40798314 </v>
  </varray>
  <energy>
   <i name="e_fr_energy">    -19.52818776 </i>
   <i name="e_wo_entrp">    -19.52816129 </i>
   <i name="e_0_energy">     -0.00010586 </i>
  </energy>
  <time name="totalsc">    7.45    7.67</time>
  <eigenvalues>
   <array>
    <dimension dim="1">band</dimension>
    <dimension dim="2">kpoint</dimension>
    <dimension dim="3">spin</dimension>
    <field>eigene</field>
    <field>occ</field>
    <set>
     <set comment="spin 1">
      <set comment="kpoint 1">
       <r>   -4.3486    1.0000 </r>
       <r>    4.1345    1.0000 </r>
       <r>    4.1345    1.0000 </r>
       <r>    4.1345    1.0000 </r>
       <r>    5.8060    1.0000 </r>
       <r>    5.8060    1.0000 </r>
       <r>    5.8060    1.0000 </r>
       <r>   12.1663    0.0000 </r>
       <r>   12.1663    0.0000 </r>
       <r>   12.1663    0.0000 </r>
       <r>   12.9357    0.0000 </r>
       <r>   12.9357    0.0000 </r>
       <r>   12.9357    0.0000 </r>
       <r>   14.7459    0.0000 </r>
       <r>   14.7459    0.0000 </r>
       <r>   14.7459    0.0000 </r>
      </set>
      <set comment="kpoint 2">
       <r>   -4.2164    1.0000 </r>
       <r>    2.7846    1.0000 </r>
       <r>    4.2592    1.0000 </r>
       <r>    4.2592    1.0000 </r>
       <r>    5.9267    1.0000 </r>
       <r>    5.9267    1.0000 </r>
       <r>    7.3781    1.0000 </r>
       <r>   10.9637    0.0000 </r>
       <r>   10.9637    0.0000 </r>
       <r>   12.2870    0.0000 </r>
       <r>   12.3890    0.0000 </r>
       <r>   12.3890    0.0000 </r>
       <r>   13.0515    0.0000 </r>
       <r>   14.8738    0.0000 </r>
       <r>   15.8693    0.0000 </r>
       <r>   15.8693    0.0000 </r>
      </set>
      <set comment="kpoint 3">
       <r>   -3.9524    1.0000 </r>
       <r>    1.5126    1.0000 </r>
       <r>    4.5079    1.0000 </r>
       <r>    4.5079    1.0000 </r>
       <r>    6.1650    1.0000 </r>
       <r>    6.1650    1.0000 </r>
       <r>    9.0895    1.0000 </r>
       <r>    9.7800    0.5077 </r>
       <r>    9.7800    0.5077 </r>
       <r>   11.3993    0.0000 </r>
       <r>   11.3993    0.0000 </r>
       <r>   12.5290    0.0000 </r>
       <r>   13.2830    0.0000 </r>
       <r>   15.1300    0.0000 </r>
       <r>   17.1448    0.0000 </r>
       <r>   17.4448    0.0000 </r>
      </set>
      <set comment="kpoint 4">
       <r>   -3.5570    1.0000 </r>
       <r>    0.3556    1.0000 </r>
       <r>    4.8791    1.0000 </r>
       <r>    4.8791    1.0000 </r>
       <r>    6.5092    1.0000 </r>
       <r>    6.5092    1.0000 </r>
       <r>    8.6996    1.0000 </r>
       <r>    8.6996    1.0000 </r>
       <r>   10.4019    0.0000 </r>
       <r>   10.4019    0.0000 </r>
       <r>   10.8888    0.0000 </r>
       <r>   12.8956    0.0000 </r>
       <r>   13.6299    0.0000 </r>
       <r>   15.5142    0.0000 </r>
       <r>   16.3621    0.0000 </r>
       <r>   17.0664    0.0000 </r>
      </set>
      <set comment="kpoint 5">
       <r>   -3.0309    1.0000 </r>
       <r>   -0.6800    1.0000 </r>
       <r>    5.3678    1.0000 </r>
       <r>    5.3678    1.0000 </r>
       <r>    6.8987    1.0000 </r>
       <r>    6.8987    1.0000 </r>
       <r>    7.7867    1.0000 </r>
       <r>    7.7867    1.0000 </r>
       <r>    9.5039    0.9992 </r>
       <r>    9.5039    0.9992 </r>
       <r>   12.7108    0.0000 </r>
       <r>   13.4210    0.0000 </r>
       <r>   14.0919    0.0000 </r>
       <r>   15.4383    0.0000 </r>
       <r>   16.0266    0.0000 </r>
       <r>   16.1578    0.0000 </r>
      </set>
      <set comment="kpoint 6">
       <r>   -2.3751    1.0000 </r>
       <r>   -1.5910    1.0000 </r>
       <r>    5.9450    1.0000 </r>
       <r>    5.9450    1.0000 </r>
       <r>    6.7375    1.0000 </r>
       <r>    6.7375    1.0000 </r>
       <r>    7.5793    1.0000 </r>
       <r>    7.5793    1.0000 </r>
       <r>    8.8237    1.0000 </r>
       <r>    8.8237    1.0000 </r>
       <r>   13.8759    0.0000 </r>
       <r>   14.6151    0.0000 </r>
       <r>   14.6680    0.0000 </r>
       <r>   14.7255    0.0000 </r>
       <r>   15.3573    0.0000 </r>
       <r>   16.4392    0.0000 </r>
      </set>
      <set comment="kpoint 7">
       <r>   -4.0844    1.0000 </r>
       <r>    2.9108    1.0000 </r>
       <r>    2.9108    1.0000 </r>
       <r>    4.3833    1.0000 </r>
       <r>    6.0439    1.0000 </r>
       <r>    7.4940    1.0000 </r>
       <r>    7.4940    1.0000 </r>
       <r>    9.7208    0.9874 </r>
       <r>   11.0889    0.0000 </r>
       <r>   11.0889    0.0000 </r>
       <r>   12.5098    0.0000 </r>
       <r>   12.5098    0.0000 </r>
       <r>   13.1653    0.0000 </r>
       <r>   15.5245    0.0000 </r>
       <r>   15.9947    0.0000 </r>
       <r>   15.9947    0.0000 </r>
      </set>
      <set comment="kpoint 8">
       <r>   -3.8205    1.0000 </r>
       <r>    1.6401    1.0000 </r>
       <r>    3.1627    1.0000 </r>
       <r>    4.6303    1.0000 </r>
       <r>    6.2683    1.0000 </r>
       <r>    7.7180    1.0000 </r>
       <r>    8.5425    1.0000 </r>
       <r>    9.1928    1.0000 </r>
       <r>    9.9125   -0.0266 </r>
       <r>   11.3434    0.0000 </r>
       <r>   11.5281    0.0000 </r>
       <r>   12.7243    0.0000 </r>
       <r>   12.7529    0.0000 </r>
       <r>   16.2454    0.0000 </r>
       <r>   16.2583    0.0000 </r>
       <r>   16.4987    0.0000 </r>
      </set>
      <set comment="kpoint 9">
       <r>   -3.4254    1.0000 </r>
       <r>    0.4841    1.0000 </r>
       <r>    3.5389    1.0000 </r>
       <r>    4.9958    1.0000 </r>
       <r>    6.5309    1.0000 </r>
       <r>    7.5526    1.0000 </r>
       <r>    8.0004    1.0000 </r>
       <r>    8.8728    1.0000 </r>
       <r>   10.5485    0.0000 </r>
       <r>   10.9315    0.0000 </r>
       <r>   11.7640    0.0000 </r>
       <r>   11.8308    0.0000 </r>
       <r>   13.1262    0.0000 </r>
       <r>   15.2254    0.0000 </r>
       <r>   16.4958    0.0000 </r>
       <r>   16.6214    0.0000 </r>
      </set>
      <set comment="kpoint 10">
       <r>   -2.8997    1.0000 </r>
       <r>   -0.5507    1.0000 </r>
       <r>    4.0368    1.0000 </r>
       <r>    5.4477    1.0000 </r>
       <r>    6.2688    1.0000 </r>
       <r>    7.3523    1.0000 </r>
       <r>    7.7115    1.0000 </r>
       <r>    8.5466    1.0000 </r>
       <r>    9.7330    0.9259 </r>
       <r>   10.9397    0.0000 </r>
       <r>   12.0719    0.0000 </r>
       <r>   12.8967    0.0000 </r>
       <r>   13.6942    0.0000 </r>
       <r>   14.2870    0.0000 </r>
       <r>   15.5859    0.0000 </r>
       <r>   17.1242    0.0000 </r>
      </set>
      <set comment="kpoint 11">
       <r>   -2.2444    1.0000 </r>
       <r>   -1.4609    1.0000 </r>
       <r>    4.6489    1.0000 </r>
       <r>    5.3354    1.0000 </r>
       <r>    6.2160    1.0000 </r>
       <r>    6.9067    1.0000 </r>
       <r>    7.8453    1.0000 </r>
       <r>    8.4190    1.0000 </r>
       <r>    9.5798    0.9951 </r>
       <r>   10.1524    0.0000 </r>
       <r>   12.7239    0.0000 </r>
       <r>   13.4528    0.0000 </r>
       <r>   14.0118    0.0000 </r>
       <r>   14.7676    0.0000 </r>
       <r>   15.0283    0.0000 </r>
       <r>   16.7934    0.0000 </r>
      </set>
      <set comment="kpoint 12">
       <r>   -3.5571    1.0000 </r>
       <r>    1.8946    1.0000 </r>
       <r>    1.8946    1.0000 </r>
       <r>    4.8710    1.0000 </r>
       <r>    6.4061    1.0000 </r>
       <r>    7.4464    1.0000 </r>
       <r>    9.3536    1.0000 </r>
       <r>    9.3536    1.0000 </r>
       <r>   10.2117    0.0000 </r>
       <r>   10.2117    0.0000 </r>
       <r>   11.7958    0.0000 </r>
       <r>   11.7958    0.0000 </r>
       <r>   13.6232    0.0000 </r>
       <r>   15.1360    0.0000 </r>
       <r>   16.1228    0.0000 </r>
       <r>   16.4945    0.0000 </r>
      </set>
      <set comment="kpoint 13">
       <r>   -3.1626    1.0000 </r>
       <r>    0.7408    1.0000 </r>
       <r>    2.2754    1.0000 </r>
       <r>    5.1966    1.0000 </r>
       <r>    6.0224    1.0000 </r>
       <r>    7.1367    1.0000 </r>
       <r>    8.9435    1.0000 </r>
       <r>    9.7719    0.5932 </r>
       <r>   10.4048    0.0000 </r>
       <r>   10.9079    0.0000 </r>
       <r>   11.2286    0.0000 </r>
       <r>   12.2724    0.0000 </r>
       <r>   13.3085    0.0000 </r>
       <r>   14.0878    0.0000 </r>
       <r>   15.5106    0.0000 </r>
       <r>   17.1648    0.0000 </r>
      </set>
      <set comment="kpoint 14">
       <r>   -2.6377    1.0000 </r>
       <r>   -0.2922    1.0000 </r>
       <r>    2.7806    1.0000 </r>
       <r>    4.9577    1.0000 </r>
       <r>    5.8536    1.0000 </r>
       <r>    7.5345    1.0000 </r>
       <r>    8.0128    1.0000 </r>
       <r>    9.5162    0.9987 </r>
       <r>   10.6558    0.0000 </r>
       <r>   10.9450    0.0000 </r>
       <r>   12.3550    0.0000 </r>
       <r>   12.5410    0.0000 </r>
       <r>   13.1375    0.0000 </r>
       <r>   13.4681    0.0000 </r>
       <r>   14.6004    0.0000 </r>
       <r>   18.6867    0.0000 </r>
      </set>
      <set comment="kpoint 15">
       <r>   -1.9834    1.0000 </r>
       <r>   -1.2010    1.0000 </r>
       <r>    3.4072    1.0000 </r>
       <r>    4.1470    1.0000 </r>
       <r>    6.4284    1.0000 </r>
       <r>    7.1606    1.0000 </r>
       <r>    8.1156    1.0000 </r>
       <r>    8.8070    1.0000 </r>
       <r>   11.1112    0.0000 </r>
       <r>   11.5646    0.0000 </r>
       <r>   11.7747    0.0000 </r>
       <r>   12.2950    0.0000 </r>
       <r>   13.0515    0.0000 </r>
       <r>   13.7810    0.0000 </r>
       <r>   15.2929    0.0000 </r>
       <r>   17.1690    0.0000 </r>
      </set>
      <set comment="kpoint 16">
       <r>   -2.7689    1.0000 </r>
       <r>    1.1249    1.0000 </r>
       <r>    1.1249    1.0000 </r>
       <r>    4.8311    1.0000 </r>
       <r>    5.7313    1.0000 </r>
       <r>    7.4201    1.0000 </r>
       <r>    9.3653    1.0000 </r>
       <r>    9.3653    1.0000 </r>
       <r>   10.8361    0.0000 </r>
       <r>   10.8361    0.0000 </r>
       <r>   11.9684    0.0000 </r>
       <r>   11.9684    0.0000 </r>
       <r>   13.0278    0.0000 </r>
       <r>   14.3064    0.0000 </r>
       <r>   14.5261    0.0000 </r>
       <r>   16.9059    0.0000 </r>
      </set>
      <set comment="kpoint 17">
       <r>   -2.2452    1.0000 </r>
       <r>    0.0947    1.0000 </r>
       <r>    1.6354    1.0000 </r>
       <r>    3.8938    1.0000 </r>
       <r>    6.1832    1.0000 </r>
       <r>    7.8914    1.0000 </r>
       <r>    8.3948    1.0000 </r>
       <r>    9.8683   -0.0490 </r>
       <r>   10.0162    0.0031 </r>
       <r>   11.4416    0.0000 </r>
       <r>   12.0684    0.0000 </r>
       <r>   12.3118    0.0000 </r>
       <r>   13.6127    0.0000 </r>
       <r>   13.7257    0.0000 </r>
       <r>   14.1228    0.0000 </r>
       <r>   18.0341    0.0000 </r>
      </set>
      <set comment="kpoint 18">
       <r>   -1.5924    1.0000 </r>
       <r>   -0.8118    1.0000 </r>
       <r>    2.2703    1.0000 </r>
       <r>    3.0260    1.0000 </r>
       <r>    6.7954    1.0000 </r>
       <r>    7.5351    1.0000 </r>
       <r>    8.4929    1.0000 </r>
       <r>    9.2082    1.0000 </r>
       <r>   10.4854    0.0000 </r>
       <r>   11.2194    0.0000 </r>
       <r>   12.0701    0.0000 </r>
       <r>   12.7917    0.0000 </r>
       <r>   12.8506    0.0000 </r>
       <r>   13.4885    0.0000 </r>
       <r>   15.6250    0.0000 </r>
       <r>   17.5045    0.0000 </r>
      </set>
      <set comment="kpoint 19">
       <r>   -1.7230    1.0000 </r>
       <r>    0.6091    1.0000 </r>
       <r>    0.6091    1.0000 </r>
       <r>    2.8984    1.0000 </r>
       <r>    6.6725    1.0000 </r>
       <r>    8.3788    1.0000 </r>
       <r>    8.8930    1.0000 </r>
       <r>    8.8930    1.0000 </r>
       <r>   10.5347    0.0000 </r>
       <r>   10.5347    0.0000 </r>
       <r>   11.1022    0.0000 </r>
       <r>   12.6951    0.0000 </r>
       <r>   14.1465    0.0000 </r>
       <r>   14.1465    0.0000 </r>
       <r>   15.2077    0.0000 </r>
       <r>   17.9115    0.0000 </r>
      </set>
      <set comment="kpoint 20">
       <r>   -1.0723    1.0000 </r>
       <r>   -0.2943    1.0000 </r>
       <r>    1.2496    1.0000 </r>
       <r>    2.0140    1.0000 </r>
       <r>    7.2906    1.0000 </r>
       <r>    8.0320    1.0000 </r>
       <r>    8.9871    1.0000 </r>
       <r>    9.5111    0.9989 </r>
       <r>    9.7092    1.0249 </r>
       <r>   10.2482    0.0000 </r>
       <r>   11.1498    0.0000 </r>
       <r>   11.8709    0.0000 </r>
       <r>   14.6572    0.0000 </r>
       <r>   15.1562    0.0000 </r>
       <r>   16.0200    0.0000 </r>
       <r>   17.7648    0.0000 </r>
      </set>
      <set comment="kpoint 21">
       <r>   -0.4241    1.0000 </r>
       <r>    0.3505    1.0000 </r>
       <r>    0.3505    1.0000 </r>
       <r>    1.1208    1.0000 </r>
       <r>    7.9099    1.0000 </r>
       <r>    8.6510    1.0000 </r>
       <r>    8.6510    1.0000 </r>
       <r>    9.3906    1.0000 </r>
       <r>    9.5978    0.9965 </r>
       <r>   10.3211    0.0000 </r>
       <r>   10.3211    0.0000 </r>
       <r>   11.0435    0.0000 </r>
       <r>   16.3121    0.0000 </r>
       <r>   16.3876    0.0000 </r>
       <r>   16.3876    0.0000 </r>
       <r>   17.5833    0.0000 </r>
      </set>
      <set comment="kpoint 22">
       <r>   -3.9524    1.0000 </r>
       <r>    3.0365    1.0000 </r>
       <r>    3.0365    1.0000 </r>
       <r>    3.0365    1.0000 </r>
       <r>    7.6005    1.0000 </r>
       <r>    7.6005    1.0000 </r>
       <r>    7.6005    1.0000 </r>
       <r>    9.8573   -0.0355 </r>
       <r>    9.8573   -0.0355 </r>
       <r>    9.8573   -0.0355 </r>
       <r>   13.2809    0.0000 </r>
       <r>   13.2809    0.0000 </r>
       <r>   13.2809    0.0000 </r>
       <r>   15.6537    0.0000 </r>
       <r>   15.6537    0.0000 </r>
       <r>   15.6537    0.0000 </r>
      </set>
      <set comment="kpoint 23">
       <r>   -3.6888    1.0000 </r>
       <r>    1.7672    1.0000 </r>
       <r>    3.2872    1.0000 </r>
       <r>    3.2872    1.0000 </r>
       <r>    7.7600    1.0000 </r>
       <r>    7.7600    1.0000 </r>
       <r>    8.7397    1.0000 </r>
       <r>    8.7397    1.0000 </r>
       <r>    9.2379    1.0000 </r>
       <r>   10.1779    0.0000 </r>
       <r>   12.8447    0.0000 </r>
       <r>   12.8447    0.0000 </r>
       <r>   13.5121    0.0000 </r>
       <r>   15.0517    0.0000 </r>
       <r>   15.9136    0.0000 </r>
       <r>   16.6237    0.0000 </r>
      </set>
      <set comment="kpoint 24">
       <r>   -3.2940    1.0000 </r>
       <r>    0.6124    1.0000 </r>
       <r>    3.6605    1.0000 </r>
       <r>    3.6605    1.0000 </r>
       <r>    7.3669    1.0000 </r>
       <r>    7.3669    1.0000 </r>
       <r>    8.3934    1.0000 </r>
       <r>    8.3934    1.0000 </r>
       <r>   10.3025    0.0000 </r>
       <r>   11.2881    0.0000 </r>
       <r>   11.9584    0.0000 </r>
       <r>   11.9584    0.0000 </r>
       <r>   13.8585    0.0000 </r>
       <r>   14.0034    0.0000 </r>
       <r>   16.3062    0.0000 </r>
       <r>   17.2782    0.0000 </r>
      </set>
      <set comment="kpoint 25">
       <r>   -2.7687    1.0000 </r>
       <r>   -0.4215    1.0000 </r>
       <r>    4.1495    1.0000 </r>
       <r>    4.1495    1.0000 </r>
       <r>    6.4665    1.0000 </r>
       <r>    6.4665    1.0000 </r>
       <r>    8.7792    1.0000 </r>
       <r>    8.7792    1.0000 </r>
       <r>   10.8590    0.0000 </r>
       <r>   11.0829    0.0000 </r>
       <r>   11.0829    0.0000 </r>
       <r>   13.0545    0.0000 </r>
       <r>   13.0916    0.0000 </r>
       <r>   14.3195    0.0000 </r>
       <r>   16.3768    0.0000 </r>
       <r>   16.8395    0.0000 </r>
      </set>
      <set comment="kpoint 26">
       <r>   -2.1139    1.0000 </r>
       <r>   -1.3310    1.0000 </r>
       <r>    4.7091    1.0000 </r>
       <r>    4.7091    1.0000 </r>
       <r>    5.6772    1.0000 </r>
       <r>    5.6772    1.0000 </r>
       <r>    9.2570    1.0000 </r>
       <r>    9.2570    1.0000 </r>
       <r>   10.3737    0.0000 </r>
       <r>   10.3737    0.0000 </r>
       <r>   11.4821    0.0000 </r>
       <r>   12.2129    0.0000 </r>
       <r>   14.8939    0.0000 </r>
       <r>   14.9497    0.0000 </r>
       <r>   15.5806    0.0000 </r>
       <r>   16.6574    0.0000 </r>
      </set>
      <set comment="kpoint 27">
       <r>   -3.4256    1.0000 </r>
       <r>    2.0210    1.0000 </r>
       <r>    2.0210    1.0000 </r>
       <r>    3.5344    1.0000 </r>
       <r>    7.2455    1.0000 </r>
       <r>    8.2905    1.0000 </r>
       <r>    8.7232    1.0000 </r>
       <r>    8.7232    1.0000 </r>
       <r>    9.7289    0.9491 </r>
       <r>    9.7289    0.9491 </r>
       <r>   13.0870    0.0000 </r>
       <r>   13.0870    0.0000 </r>
       <r>   13.7385    0.0000 </r>
       <r>   13.9000    0.0000 </r>
       <r>   16.2509    0.0000 </r>
       <r>   16.8738    0.0000 </r>
      </set>
      <set comment="kpoint 28">
       <r>   -3.0313    1.0000 </r>
       <r>    0.8685    1.0000 </r>
       <r>    2.4003    1.0000 </r>
       <r>    3.8975    1.0000 </r>
       <r>    6.2257    1.0000 </r>
       <r>    7.6944    1.0000 </r>
       <r>    8.5781    1.0000 </r>
       <r>    9.1674    1.0000 </r>
       <r>    9.9963    0.0045 </r>
       <r>   11.4461    0.0000 </r>
       <r>   12.2225    0.0000 </r>
       <r>   12.8378    0.0000 </r>
       <r>   13.4281    0.0000 </r>
       <r>   13.4583    0.0000 </r>
       <r>   16.7937    0.0000 </r>
       <r>   17.2547    0.0000 </r>
      </set>
      <set comment="kpoint 29">
       <r>   -2.5068    1.0000 </r>
       <r>   -0.1634    1.0000 </r>
       <r>    2.9022    1.0000 </r>
       <r>    4.3287    1.0000 </r>
       <r>    5.3167    1.0000 </r>
       <r>    6.7258    1.0000 </r>
       <r>    9.0404    1.0000 </r>
       <r>    9.6763    1.0494 </r>
       <r>   10.3515    0.0000 </r>
       <r>   11.4331    0.0000 </r>
       <r>   11.8786    0.0000 </r>
       <r>   12.6675    0.0000 </r>
       <r>   13.2159    0.0000 </r>
       <r>   14.0217    0.0000 </r>
       <r>   15.9055    0.0000 </r>
       <r>   17.7571    0.0000 </r>
      </set>
      <set comment="kpoint 30">
       <r>   -1.8531    1.0000 </r>
       <r>   -1.0714    1.0000 </r>
       <r>    3.5189    1.0000 </r>
       <r>    4.2019    1.0000 </r>
       <r>    5.1976    1.0000 </r>
       <r>    5.8748    1.0000 </r>
       <r>    9.6152    1.0018 </r>
       <r>   10.2248    0.0000 </r>
       <r>   10.2954    0.0000 </r>
       <r>   11.0299    0.0000 </r>
       <r>   11.3273    0.0000 </r>
       <r>   11.9160    0.0000 </r>
       <r>   14.3500    0.0000 </r>
       <r>   15.0974    0.0000 </r>
       <r>   15.3669    0.0000 </r>
       <r>   17.1096    0.0000 </r>
      </set>
      <set comment="kpoint 31">
       <r>   -2.6380    1.0000 </r>
       <r>    1.2518    1.0000 </r>
       <r>    1.2518    1.0000 </r>
       <r>    4.2014    1.0000 </r>
       <r>    5.1947    1.0000 </r>
       <r>    8.0833    1.0000 </r>
       <r>    8.0833    1.0000 </r>
       <r>    8.9318    1.0000 </r>
       <r>   11.6766    0.0000 </r>
       <r>   11.6766    0.0000 </r>
       <r>   11.7648    0.0000 </r>
       <r>   12.6910    0.0000 </r>
       <r>   12.6910    0.0000 </r>
       <r>   14.4208    0.0000 </r>
       <r>   15.9009    0.0000 </r>
       <r>   17.0306    0.0000 </r>
      </set>
      <set comment="kpoint 32">
       <r>   -2.1147    1.0000 </r>
       <r>    0.2228    1.0000 </r>
       <r>    1.7606    1.0000 </r>
       <r>    3.9467    1.0000 </r>
       <r>    4.9530    1.0000 </r>
       <r>    7.1029    1.0000 </r>
       <r>    8.5847    1.0000 </r>
       <r>    9.4116    1.0000 </r>
       <r>   10.7975    0.0000 </r>
       <r>   11.4179    0.0000 </r>
       <r>   12.5189    0.0000 </r>
       <r>   12.8132    0.0000 </r>
       <r>   13.9054    0.0000 </r>
       <r>   14.2409    0.0000 </r>
       <r>   15.0194    0.0000 </r>
       <r>   18.1521    0.0000 </r>
      </set>
      <set comment="kpoint 33">
       <r>   -1.4625    1.0000 </r>
       <r>   -0.6827    1.0000 </r>
       <r>    2.3918    1.0000 </r>
       <r>    3.1371    1.0000 </r>
       <r>    5.5069    1.0000 </r>
       <r>    6.2402    1.0000 </r>
       <r>    9.2046    1.0000 </r>
       <r>    9.9429   -0.0035 </r>
       <r>   10.0059    0.0039 </r>
       <r>   10.6981    0.0000 </r>
       <r>   12.9891    0.0000 </r>
       <r>   13.4935    0.0000 </r>
       <r>   13.6130    0.0000 </r>
       <r>   14.2135    0.0000 </r>
       <r>   15.7258    0.0000 </r>
       <r>   17.5460    0.0000 </r>
      </set>
      <set comment="kpoint 34">
       <r>   -1.5931    1.0000 </r>
       <r>    0.7362    1.0000 </r>
       <r>    0.7362    1.0000 </r>
       <r>    3.0094    1.0000 </r>
       <r>    5.3834    1.0000 </r>
       <r>    7.6021    1.0000 </r>
       <r>    7.6021    1.0000 </r>
       <r>    9.8240    0.1029 </r>
       <r>    9.8987   -0.0396 </r>
       <r>   12.0009    0.0000 </r>
       <r>   12.0009    0.0000 </r>
       <r>   14.1384    0.0000 </r>
       <r>   14.2770    0.0000 </r>
       <r>   14.2770    0.0000 </r>
       <r>   15.3200    0.0000 </r>
       <r>   18.0304    0.0000 </r>
      </set>
      <set comment="kpoint 35">
       <r>   -0.9430    1.0000 </r>
       <r>   -0.1659    1.0000 </r>
       <r>    1.3749    1.0000 </r>
       <r>    2.1356    1.0000 </r>
       <r>    5.9939    1.0000 </r>
       <r>    6.7365    1.0000 </r>
       <r>    8.2231    1.0000 </r>
       <r>    8.9646    1.0000 </r>
       <r>   10.4995    0.0000 </r>
       <r>   11.2065    0.0000 </r>
       <r>   12.6198    0.0000 </r>
       <r>   13.3321    0.0000 </r>
       <r>   14.7771    0.0000 </r>
       <r>   15.2710    0.0000 </r>
       <r>   16.1258    0.0000 </r>
       <r>   17.8382    0.0000 </r>
      </set>
      <set comment="kpoint 36">
       <r>   -0.2957    1.0000 </r>
       <r>    0.4777    1.0000 </r>
       <r>    0.4777    1.0000 </r>
       <r>    1.2461    1.0000 </r>
       <r>    6.6135    1.0000 </r>
       <r>    7.3580    1.0000 </r>
       <r>    7.3580    1.0000 </r>
       <r>    8.1016    1.0000 </r>
       <r>   11.1032    0.0000 </r>
       <r>   11.8136    0.0000 </r>
       <r>   11.8136    0.0000 </r>
       <r>   12.5247    0.0000 </r>
       <r>   16.4189    0.0000 </r>
       <r>   16.4935    0.0000 </r>
       <r>   16.4935    0.0000 </r>
       <r>   17.6717    0.0000 </r>
      </set>
      <set comment="kpoint 37">
       <r>   -3.1628    1.0000 </r>
       <r>    2.2730    1.0000 </r>
       <r>    2.2730    1.0000 </r>
       <r>    2.2730    1.0000 </r>
       <r>    7.5768    1.0000 </r>
       <r>    7.5768    1.0000 </r>
       <r>    7.5768    1.0000 </r>
       <r>    9.9101   -0.0289 </r>
       <r>    9.9101   -0.0289 </r>
       <r>    9.9101   -0.0289 </r>
       <r>   12.7286    0.0000 </r>
       <r>   13.9688    0.0000 </r>
       <r>   13.9688    0.0000 </r>
       <r>   13.9688    0.0000 </r>
       <r>   16.5080    0.0000 </r>
       <r>   16.5080    0.0000 </r>
      </set>
      <set comment="kpoint 38">
       <r>   -2.7691    1.0000 </r>
       <r>    1.1235    1.0000 </r>
       <r>    2.6481    1.0000 </r>
       <r>    2.6481    1.0000 </r>
       <r>    6.4862    1.0000 </r>
       <r>    6.4862    1.0000 </r>
       <r>    7.9669    1.0000 </r>
       <r>   10.2516    0.0000 </r>
       <r>   10.2516    0.0000 </r>
       <r>   11.6530    0.0000 </r>
       <r>   11.6889    0.0000 </r>
       <r>   13.6687    0.0000 </r>
       <r>   13.6687    0.0000 </r>
       <r>   14.3136    0.0000 </r>
       <r>   16.8963    0.0000 </r>
       <r>   17.5328    0.0000 </r>
      </set>
      <set comment="kpoint 39">
       <r>   -2.2455    1.0000 </r>
       <r>    0.0938    1.0000 </r>
       <r>    3.1383    1.0000 </r>
       <r>    3.1383    1.0000 </r>
       <r>    5.5113    1.0000 </r>
       <r>    5.5113    1.0000 </r>
       <r>    8.4690    1.0000 </r>
       <r>   10.6843    0.0000 </r>
       <r>   10.7024    0.0000 </r>
       <r>   10.7024    0.0000 </r>
       <r>   12.9291    0.0000 </r>
       <r>   12.9291    0.0000 </r>
       <r>   13.5388    0.0000 </r>
       <r>   14.7719    0.0000 </r>
       <r>   16.8061    0.0000 </r>
       <r>   17.4255    0.0000 </r>
      </set>
      <set comment="kpoint 40">
       <r>   -1.5928    1.0000 </r>
       <r>   -0.8124    1.0000 </r>
       <r>    3.6918    1.0000 </r>
       <r>    3.6918    1.0000 </r>
       <r>    4.7138    1.0000 </r>
       <r>    4.7138    1.0000 </r>
       <r>    9.0896    1.0000 </r>
       <r>    9.8287    0.0735 </r>
       <r>   11.1876    0.0000 </r>
       <r>   11.1876    0.0000 </r>
       <r>   12.2605    0.0000 </r>
       <r>   12.2605    0.0000 </r>
       <r>   15.3424    0.0000 </r>
       <r>   15.3815    0.0000 </r>
       <r>   16.0221    0.0000 </r>
       <r>   17.0313    0.0000 </r>
      </set>
      <set comment="kpoint 41">
       <r>   -2.3765    1.0000 </r>
       <r>    1.5046    1.0000 </r>
       <r>    1.5046    1.0000 </r>
       <r>    3.0109    1.0000 </r>
       <r>    5.3885    1.0000 </r>
       <r>    6.8643    1.0000 </r>
       <r>    6.8643    1.0000 </r>
       <r>   10.5672    0.0000 </r>
       <r>   10.6140    0.0000 </r>
       <r>   12.0217    0.0000 </r>
       <r>   12.0217    0.0000 </r>
       <r>   14.0371    0.0000 </r>
       <r>   14.0371    0.0000 </r>
       <r>   14.6490    0.0000 </r>
       <r>   17.2377    0.0000 </r>
       <r>   17.2807    0.0000 </r>
      </set>
      <set comment="kpoint 42">
       <r>   -1.8541    1.0000 </r>
       <r>    0.4786    1.0000 </r>
       <r>    2.0087    1.0000 </r>
       <r>    3.4355    1.0000 </r>
       <r>    4.4681    1.0000 </r>
       <r>    5.8768    1.0000 </r>
       <r>    7.3645    1.0000 </r>
       <r>    9.5909    0.9956 </r>
       <r>   11.0857    0.0000 </r>
       <r>   12.3796    0.0000 </r>
       <r>   13.3915    0.0000 </r>
       <r>   13.7845    0.0000 </r>
       <r>   14.4782    0.0000 </r>
       <r>   14.5947    0.0000 </r>
       <r>   16.4272    0.0000 </r>
       <r>   18.3885    0.0000 </r>
      </set>
      <set comment="kpoint 43">
       <r>   -1.2031    1.0000 </r>
       <r>   -0.4248    1.0000 </r>
       <r>    2.6274    1.0000 </r>
       <r>    3.3069    1.0000 </r>
       <r>    4.3449    1.0000 </r>
       <r>    5.0185    1.0000 </r>
       <r>    7.9866    1.0000 </r>
       <r>    8.7296    1.0000 </r>
       <r>   11.6535    0.0000 </r>
       <r>   12.2479    0.0000 </r>
       <r>   13.3228    0.0000 </r>
       <r>   13.8699    0.0000 </r>
       <r>   14.9124    0.0000 </r>
       <r>   15.6475    0.0000 </r>
       <r>   15.9026    0.0000 </r>
       <r>   17.5506    0.0000 </r>
      </set>
      <set comment="kpoint 44">
       <r>   -1.3335    1.0000 </r>
       <r>    0.9895    1.0000 </r>
       <r>    0.9895    1.0000 </r>
       <r>    3.1783    1.0000 </r>
       <r>    4.2213    1.0000 </r>
       <r>    6.3742    1.0000 </r>
       <r>    6.3742    1.0000 </r>
       <r>    8.6087    1.0000 </r>
       <r>   11.5681    0.0000 </r>
       <r>   13.5095    0.0000 </r>
       <r>   13.5095    0.0000 </r>
       <r>   14.5783    0.0000 </r>
       <r>   14.5783    0.0000 </r>
       <r>   15.5436    0.0000 </r>
       <r>   15.6495    0.0000 </r>
       <r>   18.2672    0.0000 </r>
      </set>
      <set comment="kpoint 45">
       <r>   -0.6848    1.0000 </r>
       <r>    0.0903    1.0000 </r>
       <r>    1.6232    1.0000 </r>
       <r>    2.3709    1.0000 </r>
       <r>    4.7701    1.0000 </r>
       <r>    5.5058    1.0000 </r>
       <r>    6.9972    1.0000 </r>
       <r>    7.7429    1.0000 </r>
       <r>   12.1525    0.0000 </r>
       <r>   12.8229    0.0000 </r>
       <r>   14.1801    0.0000 </r>
       <r>   14.8815    0.0000 </r>
       <r>   15.0221    0.0000 </r>
       <r>   15.5006    0.0000 </r>
       <r>   16.3299    0.0000 </r>
       <r>   17.9545    0.0000 </r>
      </set>
      <set comment="kpoint 46">
       <r>   -0.0393    1.0000 </r>
       <r>    0.7313    1.0000 </r>
       <r>    0.7313    1.0000 </r>
       <r>    1.4945    1.0000 </r>
       <r>    5.3815    1.0000 </r>
       <r>    6.1271    1.0000 </r>
       <r>    6.1271    1.0000 </r>
       <r>    6.8741    1.0000 </r>
       <r>   12.7449    0.0000 </r>
       <r>   13.4292    0.0000 </r>
       <r>   13.4292    0.0000 </r>
       <r>   14.1197    0.0000 </r>
       <r>   16.6293    0.0000 </r>
       <r>   16.7011    0.0000 </r>
       <r>   16.7011    0.0000 </r>
       <r>   17.8354    0.0000 </r>
      </set>
      <set comment="kpoint 47">
       <r>   -1.9848    1.0000 </r>
       <r>    1.8807    1.0000 </r>
       <r>    1.8807    1.0000 </r>
       <r>    1.8807    1.0000 </r>
       <r>    5.7541    1.0000 </r>
       <r>    5.7541    1.0000 </r>
       <r>    5.7541    1.0000 </r>
       <r>    9.4719    0.9998 </r>
       <r>   12.3897    0.0000 </r>
       <r>   12.3897    0.0000 </r>
       <r>   12.3897    0.0000 </r>
       <r>   14.9904    0.0000 </r>
       <r>   14.9904    0.0000 </r>
       <r>   14.9904    0.0000 </r>
       <r>   17.6569    0.0000 </r>
       <r>   17.6569    0.0000 </r>
      </set>
      <set comment="kpoint 48">
       <r>   -1.4638    1.0000 </r>
       <r>    0.8608    1.0000 </r>
       <r>    2.3714    1.0000 </r>
       <r>    2.3714    1.0000 </r>
       <r>    4.7710    1.0000 </r>
       <r>    4.7710    1.0000 </r>
       <r>    6.2518    1.0000 </r>
       <r>    8.4884    1.0000 </r>
       <r>   12.8378    0.0000 </r>
       <r>   12.8378    0.0000 </r>
       <r>   14.2156    0.0000 </r>
       <r>   14.8406    0.0000 </r>
       <r>   14.8406    0.0000 </r>
       <r>   15.4426    0.0000 </r>
       <r>   17.4146    0.0000 </r>
       <r>   18.1660    0.0000 </r>
      </set>
      <set comment="kpoint 49">
       <r>   -0.8147    1.0000 </r>
       <r>   -0.0391    1.0000 </r>
       <r>    2.9209    1.0000 </r>
       <r>    2.9209    1.0000 </r>
       <r>    3.9744    1.0000 </r>
       <r>    3.9744    1.0000 </r>
       <r>    6.8753    1.0000 </r>
       <r>    7.6217    1.0000 </r>
       <r>   13.3033    0.0000 </r>
       <r>   13.3033    0.0000 </r>
       <r>   14.3200    0.0000 </r>
       <r>   14.3200    0.0000 </r>
       <r>   16.0027    0.0000 </r>
       <r>   16.0044    0.0000 </r>
       <r>   16.6642    0.0000 </r>
       <r>   17.5246    0.0000 </r>
      </set>
      <set comment="kpoint 50">
       <r>   -0.9449    1.0000 </r>
       <r>    1.3662    1.0000 </r>
       <r>    1.3662    1.0000 </r>
       <r>    2.7920    1.0000 </r>
       <r>    3.8504    1.0000 </r>
       <r>    5.2584    1.0000 </r>
       <r>    5.2584    1.0000 </r>
       <r>    7.4993    1.0000 </r>
       <r>   13.3170    0.0000 </r>
       <r>   14.5660    0.0000 </r>
       <r>   14.5660    0.0000 </r>
       <r>   15.3842    0.0000 </r>
       <r>   15.3842    0.0000 </r>
       <r>   15.8761    0.0000 </r>
       <r>   17.0742    0.0000 </r>
       <r>   18.6169    0.0000 </r>
      </set>
      <set comment="kpoint 51">
       <r>   -0.2985    1.0000 </r>
       <r>    0.4731    1.0000 </r>
       <r>    1.9857    1.0000 </r>
       <r>    2.6626    1.0000 </r>
       <r>    3.7261    1.0000 </r>
       <r>    4.3972    1.0000 </r>
       <r>    5.8805    1.0000 </r>
       <r>    6.6288    1.0000 </r>
       <r>   13.8668    0.0000 </r>
       <r>   14.4236    0.0000 </r>
       <r>   15.4350    0.0000 </r>
       <r>   15.6801    0.0000 </r>
       <r>   15.8479    0.0000 </r>
       <r>   16.3830    0.0000 </r>
       <r>   16.6038    0.0000 </r>
       <r>   18.0197    0.0000 </r>
      </set>
      <set comment="kpoint 52">
       <r>    0.3436    1.0000 </r>
       <r>    1.1082    1.0000 </r>
       <r>    1.1082    1.0000 </r>
       <r>    1.8569    1.0000 </r>
       <r>    4.2722    1.0000 </r>
       <r>    5.0092    1.0000 </r>
       <r>    5.0092    1.0000 </r>
       <r>    5.7563    1.0000 </r>
       <r>   14.4452    0.0000 </r>
       <r>   15.0752    0.0000 </r>
       <r>   15.0752    0.0000 </r>
       <r>   15.7309    0.0000 </r>
       <r>   16.9357    0.0000 </r>
       <r>   16.9980    0.0000 </r>
       <r>   16.9980    0.0000 </r>
       <r>   18.0350    0.0000 </r>
      </set>
      <set comment="kpoint 53">
       <r>   -0.4284    1.0000 </r>
       <r>    1.8571    1.0000 </r>
       <r>    1.8571    1.0000 </r>
       <r>    1.8571    1.0000 </r>
       <r>    4.2723    1.0000 </r>
       <r>    4.2723    1.0000 </r>
       <r>    4.2723    1.0000 </r>
       <r>    6.5054    1.0000 </r>
       <r>   15.0924    0.0000 </r>
       <r>   15.0924    0.0000 </r>
       <r>   15.0924    0.0000 </r>
       <r>   16.3126    0.0000 </r>
       <r>   16.3126    0.0000 </r>
       <r>   16.3126    0.0000 </r>
       <r>   18.0711    0.0000 </r>
       <r>   18.0711    0.0000 </r>
      </set>
      <set comment="kpoint 54">
       <r>    0.2141    1.0000 </r>
       <r>    0.9792    1.0000 </r>
       <r>    2.4039    1.0000 </r>
       <r>    2.4039    1.0000 </r>
       <r>    3.4773    1.0000 </r>
       <r>    3.4773    1.0000 </r>
       <r>    4.8846    1.0000 </r>
       <r>    5.6322    1.0000 </r>
       <r>   15.5311    0.0000 </r>
       <r>   15.5311    0.0000 </r>
       <r>   16.3511    0.0000 </r>
       <r>   16.3511    0.0000 </r>
       <r>   16.7713    0.0000 </r>
       <r>   16.8435    0.0000 </r>
       <r>   17.4471    0.0000 </r>
       <r>   17.9874    0.0000 </r>
      </set>
      <set comment="kpoint 55">
       <r>    0.8499    1.0000 </r>
       <r>    1.5991    1.0000 </r>
       <r>    1.5991    1.0000 </r>
       <r>    2.2742    1.0000 </r>
       <r>    3.3526    1.0000 </r>
       <r>    4.0219    1.0000 </r>
       <r>    4.0219    1.0000 </r>
       <r>    4.7596    1.0000 </r>
       <r>   16.1243    0.0000 </r>
       <r>   16.6106    0.0000 </r>
       <r>   16.6106    0.0000 </r>
       <r>   17.2050    0.0000 </r>
       <r>   17.3196    0.0000 </r>
       <r>   17.3538    0.0000 </r>
       <r>   17.3538    0.0000 </r>
       <r>   18.1692    0.0000 </r>
      </set>
      <set comment="kpoint 56">
       <r>    1.4700    1.0000 </r>
       <r>    2.1445    1.0000 </r>
       <r>    2.1445    1.0000 </r>
       <r>    2.1445    1.0000 </r>
       <r>    3.2278    1.0000 </r>
       <r>    3.2278    1.0000 </r>
       <r>    3.2278    1.0000 </r>
       <r>    3.8965    1.0000 </r>
       <r>   17.5608    0.0000 </r>
       <r>   17.5608    0.0000 </r>
       <r>   17.5608    0.0000 </r>
       <r>   17.7359    0.0000 </r>
       <r>   17.7359    0.0000 </r>
       <r>   17.7359    0.0000 </r>
       <r>   18.0735    0.0000 </r>
       <r>   18.0735    0.0000 </r>
      </set>
     </set>
    </set>
   </array>
  </eigenvalues>
  <separator name="orbital magnetization" >
   <v name="MAGDIPOLOUT">      0.00000000      0.00000000      0.00000000</v>
  </separator>
  <dos>
   <i name="efermi">      9.78077041 </i>
   <total>
    <array>
     <dimension dim="1">gridpoints</dimension>
     <dimension dim="2">spin</dimension>
     <field>energy</field>
     <field>total</field>
     <field>integrated</field>
     <set>
      <set comment="spin 1">
       <r>    -5.5003     0.0000     0.0000 </r>
       <r>    -5.4159     0.0000     0.0000 </r>
       <r>    -5.3314     0.0000     0.0000 </r>
       <r>    -5.2469     0.0000     0.0000 </r>
       <r>    -5.1625     0.0000     0.0000 </r>
       <r>    -5.0780     0.0000     0.0000 </r>
       <r>    -4.9936     0.0000     0.0000 </r>
       <r>    -4.9091     0.0000     0.0000 </r>
       <r>    -4.8246     0.0000     0.0000 </r>
       <r>    -4.7402     0.0000     0.0000 </r>
       <r>    -4.6557     0.0000     0.0000 </r>
       <r>    -4.5712     0.0004     0.0000 </r>
       <r>    -4.4868    -0.0024    -0.0002 </r>
       <r>    -4.4023     0.0078     0.0005 </r>
       <r>    -4.3179     0.0665     0.0061 </r>
       <r>    -4.2334     0.1450     0.0184 </r>
       <r>    -4.1489     0.2259     0.0374 </r>
       <r>    -4.0645     0.2121     0.0554 </r>
       <r>    -3.9800     0.2228     0.0742 </r>
       <r>    -3.8955     0.2950     0.0991 </r>
       <r>    -3.8111     0.4241     0.1349 </r>
       <r>    -3.7266     0.3453     0.1641 </r>
       <r>    -3.6421     0.1951     0.1805 </r>
       <r>    -3.5577     0.3621     0.2111 </r>
       <r>    -3.4732     0.4537     0.2495 </r>
       <r>    -3.3888     0.7224     0.3105 </r>
       <r>    -3.3043     0.3124     0.3369 </r>
       <r>    -3.2198     0.2060     0.3543 </r>
       <r>    -3.1354     0.5185     0.3980 </r>
       <r>    -3.0509     0.5416     0.4438 </r>
       <r>    -2.9664     0.6641     0.4999 </r>
       <r>    -2.8820     0.4209     0.5354 </r>
       <r>    -2.7975     0.4768     0.5757 </r>
       <r>    -2.7131     0.6853     0.6336 </r>
       <r>    -2.6286     0.6466     0.6882 </r>
       <r>    -2.5441     0.5453     0.7343 </r>
       <r>    -2.4597     0.4388     0.7713 </r>
       <r>    -2.3752     0.3810     0.8035 </r>
       <r>    -2.2907     0.5251     0.8479 </r>
       <r>    -2.2063     1.2032     0.9495 </r>
       <r>    -2.1218     0.7277     1.0109 </r>
       <r>    -2.0374     0.5925     1.0610 </r>
       <r>    -1.9529     0.4878     1.1022 </r>
       <r>    -1.8684     0.6965     1.1610 </r>
       <r>    -1.7840     0.8672     1.2343 </r>
       <r>    -1.6995     0.1463     1.2466 </r>
       <r>    -1.6150     0.5897     1.2964 </r>
       <r>    -1.5306     1.1692     1.3952 </r>
       <r>    -1.4461     1.1277     1.4904 </r>
       <r>    -1.3617     0.7615     1.5547 </r>
       <r>    -1.2772     0.3819     1.5870 </r>
       <r>    -1.1927     0.8171     1.6560 </r>
       <r>    -1.1083     0.8274     1.7259 </r>
       <r>    -1.0238     0.9191     1.8035 </r>
       <r>    -0.9393     0.6650     1.8597 </r>
       <r>    -0.8549     0.6445     1.9141 </r>
       <r>    -0.7704     0.9036     1.9905 </r>
       <r>    -0.6860     1.0200     2.0766 </r>
       <r>    -0.6015     0.9525     2.1571 </r>
       <r>    -0.5170     0.3767     2.1889 </r>
       <r>    -0.4326     0.7375     2.2512 </r>
       <r>    -0.3481     1.0188     2.3372 </r>
       <r>    -0.2636     1.6461     2.4763 </r>
       <r>    -0.1792     1.0404     2.5641 </r>
       <r>    -0.0947     0.8196     2.6334 </r>
       <r>    -0.0102     0.4039     2.6675 </r>
       <r>     0.0742     0.7299     2.7291 </r>
       <r>     0.1587     1.1500     2.8263 </r>
       <r>     0.2431     0.6615     2.8821 </r>
       <r>     0.3276     0.6723     2.9389 </r>
       <r>     0.4121     0.9108     3.0158 </r>
       <r>     0.4965     1.8180     3.1694 </r>
       <r>     0.5810     1.1652     3.2678 </r>
       <r>     0.6655     0.5854     3.3173 </r>
       <r>     0.7499     1.3127     3.4281 </r>
       <r>     0.8344     1.1297     3.5235 </r>
       <r>     0.9188     0.8785     3.5977 </r>
       <r>     1.0033     0.6604     3.6535 </r>
       <r>     1.0878     0.8118     3.7221 </r>
       <r>     1.1722     1.3886     3.8394 </r>
       <r>     1.2567     1.0765     3.9303 </r>
       <r>     1.3412     1.0616     4.0200 </r>
       <r>     1.4256     0.8910     4.0952 </r>
       <r>     1.5101     0.8383     4.1660 </r>
       <r>     1.5945     1.3033     4.2761 </r>
       <r>     1.6790     1.8050     4.4286 </r>
       <r>     1.7635     0.6846     4.4864 </r>
       <r>     1.8479     0.8881     4.5614 </r>
       <r>     1.9324     1.1066     4.6549 </r>
       <r>     2.0169     1.7028     4.7987 </r>
       <r>     2.1013     1.3304     4.9111 </r>
       <r>     2.1858     0.5605     4.9584 </r>
       <r>     2.2702     0.9877     5.0418 </r>
       <r>     2.3547     1.8621     5.1991 </r>
       <r>     2.4392     2.3638     5.3988 </r>
       <r>     2.5236     0.2192     5.4173 </r>
       <r>     2.6081     0.2879     5.4416 </r>
       <r>     2.6926     1.4285     5.5623 </r>
       <r>     2.7770     0.8032     5.6301 </r>
       <r>     2.8615     0.9723     5.7122 </r>
       <r>     2.9459     1.7007     5.8559 </r>
       <r>     3.0304     1.3593     5.9707 </r>
       <r>     3.1149     1.1349     6.0665 </r>
       <r>     3.1993     1.6500     6.2059 </r>
       <r>     3.2838     1.0202     6.2921 </r>
       <r>     3.3683     1.0964     6.3847 </r>
       <r>     3.4527     1.2398     6.4894 </r>
       <r>     3.5372     1.7406     6.6364 </r>
       <r>     3.6217     0.8135     6.7051 </r>
       <r>     3.7061     1.0933     6.7974 </r>
       <r>     3.7906     0.7425     6.8602 </r>
       <r>     3.8750     0.6118     6.9118 </r>
       <r>     3.9595     1.7988     7.0638 </r>
       <r>     4.0440     1.5075     7.1911 </r>
       <r>     4.1284     1.0089     7.2763 </r>
       <r>     4.2129     1.8934     7.4362 </r>
       <r>     4.2974     1.8054     7.5887 </r>
       <r>     4.3818     1.6154     7.7252 </r>
       <r>     4.4663     1.1844     7.8252 </r>
       <r>     4.5507     0.7642     7.8897 </r>
       <r>     4.6352     0.6336     7.9432 </r>
       <r>     4.7197     1.6953     8.0864 </r>
       <r>     4.8041     1.8900     8.2461 </r>
       <r>     4.8886     1.2414     8.3509 </r>
       <r>     4.9731     1.8629     8.5083 </r>
       <r>     5.0575     1.8806     8.6671 </r>
       <r>     5.1420     0.1889     8.6831 </r>
       <r>     5.2264     1.2580     8.7893 </r>
       <r>     5.3109     1.4360     8.9106 </r>
       <r>     5.3954     1.9248     9.0732 </r>
       <r>     5.4798     1.6180     9.2098 </r>
       <r>     5.5643     1.5013     9.3366 </r>
       <r>     5.6488     0.4279     9.3728 </r>
       <r>     5.7332     0.9139     9.4500 </r>
       <r>     5.8177     1.0165     9.5358 </r>
       <r>     5.9021     2.3029     9.7303 </r>
       <r>     5.9866     2.0672     9.9049 </r>
       <r>     6.0711     1.1067     9.9984 </r>
       <r>     6.1555     0.9732    10.0806 </r>
       <r>     6.2400     2.7982    10.3170 </r>
       <r>     6.3245     2.0104    10.4868 </r>
       <r>     6.4089     0.8081    10.5550 </r>
       <r>     6.4934     2.0299    10.7265 </r>
       <r>     6.5778     1.5741    10.8594 </r>
       <r>     6.6623     0.8564    10.9317 </r>
       <r>     6.7468     1.6614    11.0721 </r>
       <r>     6.8312     1.4859    11.1976 </r>
       <r>     6.9157     1.8874    11.3570 </r>
       <r>     7.0002     0.9953    11.4411 </r>
       <r>     7.0846     0.5002    11.4833 </r>
       <r>     7.1691     1.3233    11.5951 </r>
       <r>     7.2536     0.6334    11.6486 </r>
       <r>     7.3380     1.4614    11.7720 </r>
       <r>     7.4225     2.3779    11.9728 </r>
       <r>     7.5069     1.4780    12.0977 </r>
       <r>     7.5914     2.9437    12.3463 </r>
       <r>     7.6759     1.8069    12.4989 </r>
       <r>     7.7603     2.3245    12.6953 </r>
       <r>     7.8448     1.6385    12.8337 </r>
       <r>     7.9293     1.0226    12.9200 </r>
       <r>     8.0137     1.9257    13.0827 </r>
       <r>     8.0982     2.0920    13.2594 </r>
       <r>     8.1826     0.8962    13.3351 </r>
       <r>     8.2671     0.4944    13.3768 </r>
       <r>     8.3516     0.5621    13.4243 </r>
       <r>     8.4360     1.7512    13.5722 </r>
       <r>     8.5205     1.8475    13.7283 </r>
       <r>     8.6050     2.2486    13.9182 </r>
       <r>     8.6894     1.6121    14.0543 </r>
       <r>     8.7739     2.4226    14.2590 </r>
       <r>     8.8583     1.9493    14.4236 </r>
       <r>     8.9428     1.8628    14.5809 </r>
       <r>     9.0273     1.7747    14.7308 </r>
       <r>     9.1117     0.8725    14.8045 </r>
       <r>     9.1962     1.6906    14.9473 </r>
       <r>     9.2807     1.9745    15.1141 </r>
       <r>     9.3651     1.0717    15.2046 </r>
       <r>     9.4496     1.3937    15.3223 </r>
       <r>     9.5340     1.6601    15.4625 </r>
       <r>     9.6185     2.1010    15.6400 </r>
       <r>     9.7030     1.8678    15.7978 </r>
       <r>     9.7874     2.5721    16.0150 </r>
       <r>     9.8719     1.8778    16.1736 </r>
       <r>     9.9564     2.0803    16.3493 </r>
       <r>    10.0408     1.8135    16.5025 </r>
       <r>    10.1253     0.4306    16.5389 </r>
       <r>    10.2097     1.3885    16.6561 </r>
       <r>    10.2942     2.5829    16.8743 </r>
       <r>    10.3787     2.3699    17.0745 </r>
       <r>    10.4631     1.6897    17.2172 </r>
       <r>    10.5476     1.7930    17.3686 </r>
       <r>    10.6321     1.3796    17.4852 </r>
       <r>    10.7165     1.6129    17.6214 </r>
       <r>    10.8010     1.0007    17.7059 </r>
       <r>    10.8854     1.4839    17.8312 </r>
       <r>    10.9699     2.5781    18.0490 </r>
       <r>    11.0544     1.9352    18.2125 </r>
       <r>    11.1388     3.0032    18.4661 </r>
       <r>    11.2233     2.4391    18.6721 </r>
       <r>    11.3078     1.4492    18.7945 </r>
       <r>    11.3922     1.6437    18.9334 </r>
       <r>    11.4767     2.6300    19.1555 </r>
       <r>    11.5612     1.4640    19.2791 </r>
       <r>    11.6456     1.2138    19.3817 </r>
       <r>    11.7301     1.5149    19.5096 </r>
       <r>    11.8145     2.4002    19.7123 </r>
       <r>    11.8990     2.3527    19.9111 </r>
       <r>    11.9835     1.9288    20.0740 </r>
       <r>    12.0679     2.3375    20.2714 </r>
       <r>    12.1524     1.4963    20.3978 </r>
       <r>    12.2369     1.7534    20.5459 </r>
       <r>    12.3213     3.0702    20.8052 </r>
       <r>    12.4058     2.1217    20.9844 </r>
       <r>    12.4902     1.0652    21.0744 </r>
       <r>    12.5747     1.8631    21.2317 </r>
       <r>    12.6592     1.2428    21.3367 </r>
       <r>    12.7436     2.8166    21.5746 </r>
       <r>    12.8281     3.5539    21.8748 </r>
       <r>    12.9126     3.2878    22.1525 </r>
       <r>    12.9970     1.4200    22.2724 </r>
       <r>    13.0815     2.0413    22.4448 </r>
       <r>    13.1659     2.0983    22.6220 </r>
       <r>    13.2504     1.0435    22.7102 </r>
       <r>    13.3349     2.4522    22.9173 </r>
       <r>    13.4193     2.5999    23.1369 </r>
       <r>    13.5038     3.8735    23.4641 </r>
       <r>    13.5883     2.0170    23.6344 </r>
       <r>    13.6727     1.9190    23.7965 </r>
       <r>    13.7572     1.9202    23.9587 </r>
       <r>    13.8416     1.7477    24.1063 </r>
       <r>    13.9261     2.1044    24.2841 </r>
       <r>    14.0106     1.5476    24.4148 </r>
       <r>    14.0950     2.2846    24.6077 </r>
       <r>    14.1795     2.4001    24.8105 </r>
       <r>    14.2640     2.3341    25.0076 </r>
       <r>    14.3484     2.6654    25.2327 </r>
       <r>    14.4329     1.4836    25.3580 </r>
       <r>    14.5173     1.1891    25.4585 </r>
       <r>    14.6018     2.2106    25.6452 </r>
       <r>    14.6863     2.1467    25.8265 </r>
       <r>    14.7707     1.5066    25.9538 </r>
       <r>    14.8552     1.8005    26.1058 </r>
       <r>    14.9397     1.6893    26.2485 </r>
       <r>    15.0241     1.8350    26.4035 </r>
       <r>    15.1086     2.6870    26.6305 </r>
       <r>    15.1931     1.6687    26.7714 </r>
       <r>    15.2775     1.3790    26.8879 </r>
       <r>    15.3620     2.0487    27.0609 </r>
       <r>    15.4464     2.1576    27.2432 </r>
       <r>    15.5309     2.3973    27.4456 </r>
       <r>    15.6154     2.4443    27.6521 </r>
       <r>    15.6998     2.2588    27.8429 </r>
       <r>    15.7843     0.9030    27.9191 </r>
       <r>    15.8688     1.2775    28.0271 </r>
       <r>    15.9532     2.4394    28.2331 </r>
       <r>    16.0377     1.9674    28.3993 </r>
       <r>    16.1221     1.3865    28.5164 </r>
       <r>    16.2066     1.0057    28.6013 </r>
       <r>    16.2911     1.6204    28.7382 </r>
       <r>    16.3755     2.9331    28.9859 </r>
       <r>    16.4600     2.8140    29.2236 </r>
       <r>    16.5445     2.0674    29.3982 </r>
       <r>    16.6289     2.0513    29.5715 </r>
       <r>    16.7134     1.8736    29.7297 </r>
       <r>    16.7978     1.4075    29.8486 </r>
       <r>    16.8823     1.8519    30.0050 </r>
       <r>    16.9668     0.9902    30.0887 </r>
       <r>    17.0512     1.1731    30.1877 </r>
       <r>    17.1357     2.0260    30.3589 </r>
       <r>    17.2202     2.1040    30.5366 </r>
       <r>    17.3046     1.5074    30.6639 </r>
       <r>    17.3891     1.0636    30.7537 </r>
       <r>    17.4735     1.1973    30.8548 </r>
       <r>    17.5580     2.2718    31.0467 </r>
       <r>    17.6425     1.2861    31.1554 </r>
       <r>    17.7269     0.6615    31.2112 </r>
       <r>    17.8114     1.4913    31.3372 </r>
       <r>    17.8959     0.9021    31.4134 </r>
       <r>    17.9803     1.0389    31.5011 </r>
       <r>    18.0648     2.0291    31.6725 </r>
       <r>    18.1492     1.1773    31.7720 </r>
       <r>    18.2337     0.8049    31.8399 </r>
       <r>    18.3182     0.2240    31.8589 </r>
       <r>    18.4026     0.4583    31.8976 </r>
       <r>    18.4871     0.2523    31.9189 </r>
       <r>    18.5716    -0.0268    31.9166 </r>
       <r>    18.6560     0.4156    31.9517 </r>
       <r>    18.7405     0.5558    31.9987 </r>
       <r>    18.8250     0.0278    32.0010 </r>
       <r>    18.9094    -0.0147    31.9998 </r>
       <r>    18.9939     0.0027    32.0000 </r>
       <r>    19.0783     0.0001    32.0000 </r>
       <r>    19.1628     0.0000    32.0000 </r>
       <r>    19.2473     0.0000    32.0000 </r>
       <r>    19.3317     0.0000    32.0000 </r>
       <r>    19.4162     0.0000    32.0000 </r>
       <r>    19.5007     0.0000    32.0000 </r>
       <r>    19.5851     0.0000    32.0000 </r>
       <r>    19.6696     0.0000    32.0000 </r>
       <r>    19.7540     0.0000    32.0000 </r>
       <r>    19.8385     0.0000    32.0000 </r>
      </set>
     </set>
    </array>
   </total>
  </dos>
 </calculation>
 <structure name="finalpos" >
  <crystal>
   <varray name="basis" >
    <v>       3.90623076       0.00000000       0.00000000 </v>
    <v>       0.00000000       3.90623076       0.00000000 </v>
    <v>       0.00000000       0.00000000       3.90623076 </v>
   </varray>
   <i name="volume">     59.60376414 </i>
   <varray name="rec_basis" >
    <v>       0.25600126       0.00000000       0.00000000 </v>
    <v>       0.00000000       0.25600126       0.00000000 </v>
    <v>       0.00000000       0.00000000       0.25600126 </v>
   </varray>
  </crystal>
  <varray name="positions" >
   <v>       0.00000000       0.00000000       0.00000000 </v>
   <v>       0.50000000       0.50000000       0.00000000 </v>
   <v>       0.50000000       0.00000000       0.50000000 </v>
   <v>       0.00000000       0.50000000       0.50000000 </v>
  </varray>
 </structure>
</modeling>
