<?xml version="1.0" encoding="ISO-8859-1"?>
<modeling>
 <generator>
  <i name="program" type="string">vasp </i>
  <i name="version" type="string">5.4.1  </i>
  <i name="subversion" type="string">24Jun15 (build Jul  8 2015 13:29:37) complex                          parallel </i>
  <i name="platform" type="string">FX10FRT </i>
  <i name="date" type="string">2016 02 20 </i>
  <i name="time" type="string">07:07:47 </i>
 </generator>
 <incar>
  <i type="string" name="PREC">accurate</i>
  <i type="string" name="ALGO"> Normal</i>
  <i type="int" name="ISPIN">     1</i>
  <i type="int" name="IBRION">    -1</i>
  <i name="EDIFF">      0.00010000</i>
  <i type="int" name="NSW">     0</i>
  <i type="int" name="ISIF">     2</i>
  <i name="ENCUT">    400.00000000</i>
  <i type="int" name="ISMEAR">     2</i>
  <i name="SIGMA">      0.10000000</i>
  <i type="int" name="NWRITE">     1</i>
  <v type="int" name="KPOINT_BSE">    -1     0     0     0</v>
 </incar>
 <kpoints>
  <generation param="Monkhorst-Pack">
   <v type="int" name="divisions">       9        9        9 </v>
   <v name="usershift">      0.00000000       0.00000000       0.00000000 </v>
   <v name="genvec1">      0.11111111       0.00000000       0.00000000 </v>
   <v name="genvec2">      0.00000000       0.11111111       0.00000000 </v>
   <v name="genvec3">      0.00000000       0.00000000       0.11111111 </v>
   <v name="shift">      0.00000000       0.00000000       0.00000000 </v>
  </generation>
  <varray name="kpointlist" >
   <v>       0.00000000       0.00000000       0.00000000 </v>
   <v>       0.11111111       0.00000000       0.00000000 </v>
   <v>       0.22222222       0.00000000       0.00000000 </v>
   <v>       0.33333333       0.00000000       0.00000000 </v>
   <v>       0.44444444       0.00000000       0.00000000 </v>
   <v>       0.00000000       0.11111111       0.00000000 </v>
   <v>       0.11111111       0.11111111       0.00000000 </v>
   <v>       0.22222222       0.11111111       0.00000000 </v>
   <v>       0.33333333       0.11111111       0.00000000 </v>
   <v>       0.44444444       0.11111111       0.00000000 </v>
   <v>       0.00000000       0.22222222       0.00000000 </v>
   <v>       0.11111111       0.22222222       0.00000000 </v>
   <v>       0.22222222       0.22222222       0.00000000 </v>
   <v>       0.33333333       0.22222222       0.00000000 </v>
   <v>       0.44444444       0.22222222       0.00000000 </v>
   <v>       0.00000000       0.33333333       0.00000000 </v>
   <v>       0.11111111       0.33333333       0.00000000 </v>
   <v>       0.22222222       0.33333333       0.00000000 </v>
   <v>       0.33333333       0.33333333       0.00000000 </v>
   <v>       0.44444444       0.33333333       0.00000000 </v>
   <v>       0.00000000       0.44444444       0.00000000 </v>
   <v>       0.11111111       0.44444444       0.00000000 </v>
   <v>       0.22222222       0.44444444       0.00000000 </v>
   <v>       0.33333333       0.44444444       0.00000000 </v>
   <v>       0.44444444       0.44444444       0.00000000 </v>
   <v>       0.00000000       0.11111111       0.11111111 </v>
   <v>       0.11111111       0.11111111       0.11111111 </v>
   <v>       0.22222222       0.11111111       0.11111111 </v>
   <v>       0.33333333       0.11111111       0.11111111 </v>
   <v>       0.44444444       0.11111111       0.11111111 </v>
   <v>       0.00000000       0.22222222       0.11111111 </v>
   <v>       0.11111111       0.22222222       0.11111111 </v>
   <v>       0.22222222       0.22222222       0.11111111 </v>
   <v>       0.33333333       0.22222222       0.11111111 </v>
   <v>       0.44444444       0.22222222       0.11111111 </v>
   <v>       0.00000000       0.33333333       0.11111111 </v>
   <v>       0.11111111       0.33333333       0.11111111 </v>
   <v>       0.22222222       0.33333333       0.11111111 </v>
   <v>       0.33333333       0.33333333       0.11111111 </v>
   <v>       0.44444444       0.33333333       0.11111111 </v>
   <v>       0.00000000       0.44444444       0.11111111 </v>
   <v>       0.11111111       0.44444444       0.11111111 </v>
   <v>       0.22222222       0.44444444       0.11111111 </v>
   <v>       0.33333333       0.44444444       0.11111111 </v>
   <v>       0.44444444       0.44444444       0.11111111 </v>
   <v>       0.00000000       0.22222222       0.22222222 </v>
   <v>       0.11111111       0.22222222       0.22222222 </v>
   <v>       0.22222222       0.22222222       0.22222222 </v>
   <v>       0.33333333       0.22222222       0.22222222 </v>
   <v>       0.44444444       0.22222222       0.22222222 </v>
   <v>       0.00000000       0.33333333       0.22222222 </v>
   <v>       0.11111111       0.33333333       0.22222222 </v>
   <v>       0.22222222       0.33333333       0.22222222 </v>
   <v>       0.33333333       0.33333333       0.22222222 </v>
   <v>       0.44444444       0.33333333       0.22222222 </v>
   <v>       0.00000000       0.44444444       0.22222222 </v>
   <v>       0.11111111       0.44444444       0.22222222 </v>
   <v>       0.22222222       0.44444444       0.22222222 </v>
   <v>       0.33333333       0.44444444       0.22222222 </v>
   <v>       0.44444444       0.44444444       0.22222222 </v>
   <v>       0.00000000       0.33333333       0.33333333 </v>
   <v>       0.11111111       0.33333333       0.33333333 </v>
   <v>       0.22222222       0.33333333       0.33333333 </v>
   <v>       0.33333333       0.33333333       0.33333333 </v>
   <v>       0.44444444       0.33333333       0.33333333 </v>
   <v>       0.00000000       0.44444444       0.33333333 </v>
   <v>       0.11111111       0.44444444       0.33333333 </v>
   <v>       0.22222222       0.44444444       0.33333333 </v>
   <v>       0.33333333       0.44444444       0.33333333 </v>
   <v>       0.44444444       0.44444444       0.33333333 </v>
   <v>       0.00000000       0.44444444       0.44444444 </v>
   <v>       0.11111111       0.44444444       0.44444444 </v>
   <v>       0.22222222       0.44444444       0.44444444 </v>
   <v>       0.33333333       0.44444444       0.44444444 </v>
   <v>       0.44444444       0.44444444       0.44444444 </v>
  </varray>
  <varray name="weights" >
   <v>       0.00137174 </v>
   <v>       0.00274348 </v>
   <v>       0.00274348 </v>
   <v>       0.00274348 </v>
   <v>       0.00274348 </v>
   <v>       0.00548697 </v>
   <v>       0.01097394 </v>
   <v>       0.01097394 </v>
   <v>       0.01097394 </v>
   <v>       0.01097394 </v>
   <v>       0.00548697 </v>
   <v>       0.01097394 </v>
   <v>       0.01097394 </v>
   <v>       0.01097394 </v>
   <v>       0.01097394 </v>
   <v>       0.00548697 </v>
   <v>       0.01097394 </v>
   <v>       0.01097394 </v>
   <v>       0.01097394 </v>
   <v>       0.01097394 </v>
   <v>       0.00548697 </v>
   <v>       0.01097394 </v>
   <v>       0.01097394 </v>
   <v>       0.01097394 </v>
   <v>       0.01097394 </v>
   <v>       0.00548697 </v>
   <v>       0.01097394 </v>
   <v>       0.01097394 </v>
   <v>       0.01097394 </v>
   <v>       0.01097394 </v>
   <v>       0.01097394 </v>
   <v>       0.02194787 </v>
   <v>       0.02194787 </v>
   <v>       0.02194787 </v>
   <v>       0.02194787 </v>
   <v>       0.01097394 </v>
   <v>       0.02194787 </v>
   <v>       0.02194787 </v>
   <v>       0.02194787 </v>
   <v>       0.02194787 </v>
   <v>       0.01097394 </v>
   <v>       0.02194787 </v>
   <v>       0.02194787 </v>
   <v>       0.02194787 </v>
   <v>       0.02194787 </v>
   <v>       0.00548697 </v>
   <v>       0.01097394 </v>
   <v>       0.01097394 </v>
   <v>       0.01097394 </v>
   <v>       0.01097394 </v>
   <v>       0.01097394 </v>
   <v>       0.02194787 </v>
   <v>       0.02194787 </v>
   <v>       0.02194787 </v>
   <v>       0.02194787 </v>
   <v>       0.01097394 </v>
   <v>       0.02194787 </v>
   <v>       0.02194787 </v>
   <v>       0.02194787 </v>
   <v>       0.02194787 </v>
   <v>       0.00548697 </v>
   <v>       0.01097394 </v>
   <v>       0.01097394 </v>
   <v>       0.01097394 </v>
   <v>       0.01097394 </v>
   <v>       0.01097394 </v>
   <v>       0.02194787 </v>
   <v>       0.02194787 </v>
   <v>       0.02194787 </v>
   <v>       0.02194787 </v>
   <v>       0.00548697 </v>
   <v>       0.01097394 </v>
   <v>       0.01097394 </v>
   <v>       0.01097394 </v>
   <v>       0.01097394 </v>
  </varray>
 </kpoints>
 <parameters>
  <separator name="general" >
   <i type="string" name="SYSTEM">unknown system</i>
   <i type="logical" name="LCOMPAT"> F  </i>
  </separator>
  <separator name="electronic" >
   <i type="string" name="PREC">accura</i>
   <i name="ENMAX">    400.00000000</i>
   <i name="ENAUG">    322.06900000</i>
   <i name="EDIFF">      0.00010000</i>
   <i type="int" name="IALGO">    38</i>
   <i type="int" name="IWAVPR">    10</i>
   <i type="int" name="NBANDS">    24</i>
   <i name="NELECT">     32.00000000</i>
   <i type="int" name="TURBO">     0</i>
   <i type="int" name="IRESTART">     0</i>
   <i type="int" name="NREBOOT">     0</i>
   <i type="int" name="NMIN">     0</i>
   <i name="EREF">      0.00000000</i>
   <separator name="electronic smearing" >
    <i type="int" name="ISMEAR">     2</i>
    <i name="SIGMA">      0.10000000</i>
    <i name="KSPACING">      0.50000000</i>
    <i type="logical" name="KGAMMA"> T  </i>
   </separator>
   <separator name="electronic projectors" >
    <i type="logical" name="LREAL"> F  </i>
    <v name="ROPT">      0.00000000</v>
    <i type="int" name="LMAXPAW">  -100</i>
    <i type="int" name="LMAXMIX">     2</i>
    <i type="logical" name="NLSPLINE"> F  </i>
   </separator>
   <separator name="electronic startup" >
    <i type="int" name="ISTART">     0</i>
    <i type="int" name="ICHARG">     2</i>
    <i type="int" name="INIWAV">     1</i>
   </separator>
   <separator name="electronic spin" >
    <i type="int" name="ISPIN">     1</i>
    <i type="logical" name="LNONCOLLINEAR"> F  </i>
    <v name="MAGMOM">      1.00000000      1.00000000      1.00000000      1.00000000      1.00000000      1.00000000      1.00000000      1.00000000</v>
    <i name="NUPDOWN">     -1.00000000</i>
    <i type="logical" name="LSORBIT"> F  </i>
    <v name="SAXIS">      0.00000000      0.00000000      1.00000000</v>
    <i type="logical" name="LSPIRAL"> F  </i>
    <v name="QSPIRAL">      0.00000000      0.00000000      0.00000000</v>
    <i type="logical" name="LZEROZ"> F  </i>
   </separator>
   <separator name="electronic exchange-correlation" >
    <i type="logical" name="LASPH"> F  </i>
    <i type="logical" name="LMETAGGA"> F  </i>
   </separator>
   <separator name="electronic convergence" >
    <i type="int" name="NELM">    60</i>
    <i type="int" name="NELMDL">    -5</i>
    <i type="int" name="NELMIN">     2</i>
    <i name="ENINI">    400.00000000</i>
    <separator name="electronic convergence detail" >
     <i type="logical" name="LDIAG"> T  </i>
     <i type="logical" name="LSUBROT"> F  </i>
     <i name="WEIMIN">      0.00000000</i>
     <i name="EBREAK">      0.00000104</i>
     <i name="DEPER">      0.30000000</i>
     <i type="int" name="NRMM">     4</i>
     <i name="TIME">      0.40000000</i>
    </separator>
   </separator>
   <separator name="electronic mixer" >
    <i name="AMIX">      0.40000000</i>
    <i name="BMIX">      1.00000000</i>
    <i name="AMIN">      0.10000000</i>
    <i name="AMIX_MAG">      1.60000000</i>
    <i name="BMIX_MAG">      1.00000000</i>
    <separator name="electronic mixer details" >
     <i type="int" name="IMIX">     4</i>
     <i type="logical" name="MIXFIRST"> F  </i>
     <i type="int" name="MAXMIX">   -45</i>
     <i name="WC">    100.00000000</i>
     <i type="int" name="INIMIX">     1</i>
     <i type="int" name="MIXPRE">     1</i>
     <i type="int" name="MREMOVE">     5</i>
    </separator>
   </separator>
   <separator name="electronic dipolcorrection" >
    <i type="logical" name="LDIPOL"> F  </i>
    <i type="logical" name="LMONO"> F  </i>
    <i type="int" name="IDIPOL">     0</i>
    <i name="EPSILON">      1.00000000</i>
    <v name="DIPOL">   -100.00000000   -100.00000000   -100.00000000</v>
    <i name="EFIELD">      0.00000000</i>
   </separator>
  </separator>
  <separator name="grids" >
   <i type="int" name="NGX">    36</i>
   <i type="int" name="NGY">    36</i>
   <i type="int" name="NGZ">    36</i>
   <i type="int" name="NGXF">    72</i>
   <i type="int" name="NGYF">    72</i>
   <i type="int" name="NGZF">    72</i>
   <i type="logical" name="ADDGRID"> F  </i>
  </separator>
  <separator name="ionic" >
   <i type="int" name="NSW">     0</i>
   <i type="int" name="IBRION">    -1</i>
   <i type="int" name="ISIF">     2</i>
   <i name="PSTRESS">      0.00000000</i>
   <i name="EDIFFG">      0.00100000</i>
   <i type="int" name="NFREE">     0</i>
   <i name="POTIM">      0.50000000</i>
   <i name="SMASS">     -3.00000000</i>
   <i name="SCALEE">      1.00000000</i>
  </separator>
  <separator name="ionic md" >
   <i name="TEBEG">      0.00010000</i>
   <i name="TEEND">      0.00010000</i>
   <i type="int" name="NBLOCK">     1</i>
   <i type="int" name="KBLOCK">     1</i>
   <i type="int" name="NPACO">   256</i>
   <i name="APACO">     16.00000000</i>
  </separator>
  <separator name="symmetry" >
   <i type="int" name="ISYM">     2</i>
   <i name="SYMPREC">      0.00001000</i>
  </separator>
  <separator name="dos" >
   <i type="logical" name="LORBIT"> F  </i>
   <v name="RWIGS">     -1.00000000</v>
   <i type="int" name="NEDOS">   301</i>
   <i name="EMIN">     10.00000000</i>
   <i name="EMAX">    -10.00000000</i>
   <i name="EFERMI">      0.00000000</i>
  </separator>
  <separator name="writing" >
   <i type="int" name="NWRITE">     1</i>
   <i type="logical" name="LWAVE"> T  </i>
   <i type="logical" name="LCHARG"> T  </i>
   <i type="logical" name="LPARD"> F  </i>
   <i type="logical" name="LVTOT"> F  </i>
   <i type="logical" name="LVHAR"> F  </i>
   <i type="logical" name="LELF"> F  </i>
   <i type="logical" name="LOPTICS"> F  </i>
   <v name="STM">      0.00000000      0.00000000      0.00000000      0.00000000      0.00000000      0.00000000      0.00000000</v>
  </separator>
  <separator name="performance" >
   <i type="int" name="NPAR">     8</i>
   <i type="int" name="NSIM">     4</i>
   <i type="int" name="NBLK">    -1</i>
   <i type="logical" name="LPLANE"> T  </i>
   <i type="logical" name="LSCALAPACK"> T  </i>
   <i type="logical" name="LSCAAWARE"> F  </i>
   <i type="logical" name="LSCALU"> F  </i>
   <i type="logical" name="LASYNC"> F  </i>
   <i type="logical" name="LORBITALREAL"> F  </i>
  </separator>
  <separator name="miscellaneous" >
   <i type="int" name="IDIOT">     3</i>
   <i type="logical" name="LMUSIC"> F  </i>
   <v name="POMASS">     28.08500000</v>
   <v name="DARWINR">      0.00000000</v>
   <v name="DARWINV">      1.00000000</v>
   <i type="logical" name="LCORR"> T  </i>
  </separator>
  <i type="logical" name="GGA_COMPAT"> T  </i>
  <i type="logical" name="LBERRY"> F  </i>
  <i type="int" name="ICORELEVEL">     0</i>
  <i type="logical" name="LDAU"> F  </i>
  <i type="int" name="I_CONSTRAINED_M">     0</i>
  <separator name="electronic exchange-correlation" >
   <i type="string" name="GGA">--</i>
   <i type="int" name="VOSKOWN">     0</i>
   <i type="logical" name="LHFCALC"> F  </i>
   <i type="string" name="PRECFOCK"></i>
   <i type="logical" name="LSYMGRAD"> F  </i>
   <i type="logical" name="LHFONE"> F  </i>
   <i type="logical" name="LRHFCALC"> F  </i>
   <i type="logical" name="LTHOMAS"> F  </i>
   <i type="logical" name="LMODELHF"> F  </i>
   <i name="ENCUT4O">     -1.00000000</i>
   <i type="int" name="EXXOEP">     0</i>
   <i type="int" name="FOURORBIT">     0</i>
   <i name="AEXX">      0.00000000</i>
   <i name="HFALPHA">      0.00000000</i>
   <i name="MCALPHA">      0.00000000</i>
   <i name="ALDAX">      1.00000000</i>
   <i name="AGGAX">      1.00000000</i>
   <i name="ALDAC">      1.00000000</i>
   <i name="AGGAC">      1.00000000</i>
   <i type="int" name="NKREDX">     1</i>
   <i type="int" name="NKREDY">     1</i>
   <i type="int" name="NKREDZ">     1</i>
   <i type="logical" name="SHIFTRED"> F  </i>
   <i type="logical" name="ODDONLY"> F  </i>
   <i type="logical" name="EVENONLY"> F  </i>
   <i type="int" name="LMAXFOCK">     0</i>
   <i type="int" name="NMAXFOCKAE">     0</i>
   <i type="logical" name="LFOCKAEDFT"> F  </i>
   <i name="HFSCREEN">      0.00000000</i>
   <i name="HFSCREENC">      0.00000000</i>
   <i type="int" name="NBANDSGWLOW">     0</i>
  </separator>
  <separator name="vdW DFT" >
   <i type="logical" name="LUSE_VDW"> F  </i>
   <i name="Zab_VDW">     -0.84910000</i>
   <i name="PARAM1">      0.12340000</i>
   <i name="PARAM2">      1.00000000</i>
   <i name="PARAM3">      0.00000000</i>
  </separator>
  <separator name="model GW" >
   <i type="int" name="MODEL_GW">     0</i>
   <i name="MODEL_EPS0">     11.66626871</i>
   <i name="MODEL_ALPHA">      1.00000000</i>
  </separator>
  <separator name="linear response parameters" >
   <i type="logical" name="LEPSILON"> F  </i>
   <i type="logical" name="LRPA"> F  </i>
   <i type="logical" name="LNABLA"> F  </i>
   <i type="logical" name="LVEL"> F  </i>
   <i type="int" name="KINTER">     0</i>
   <i name="CSHIFT">      0.10000000</i>
   <i name="OMEGAMAX">     -1.00000000</i>
   <i name="DEG_THRESHOLD">      0.00200000</i>
  </separator>
  <separator name="orbital magnetization" >
   <i type="logical" name="NUCIND"> F  </i>
   <v name="MAGPOS">      0.00000000      0.00000000      0.00000000</v>
   <i type="logical" name="LNICSALL"> T  </i>
   <i type="logical" name="ORBITALMAG"> F  </i>
   <i type="logical" name="LMAGBLOCH"> F  </i>
   <i type="logical" name="LCHIMAG"> F  </i>
   <i type="logical" name="LGAUGE"> T  </i>
   <i type="int" name="MAGATOM">     0</i>
   <v name="MAGDIPOL">      0.00000000      0.00000000      0.00000000</v>
   <v name="AVECCONST">      0.00000000      0.00000000      0.00000000</v>
  </separator>
  <separator name="response functions" >
   <i type="logical" name="LADDER"> F  </i>
   <i type="logical" name="LFXC"> F  </i>
   <i type="logical" name="LHARTREE"> T  </i>
   <i type="int" name="IBSE">     0</i>
   <v type="int" name="KPOINT">    -1     0     0     0</v>
   <i type="logical" name="LTCTE"> F  </i>
   <i type="logical" name="LTETE"> F  </i>
   <i type="logical" name="LTRIPLET"> F  </i>
   <i type="logical" name="LFXCEPS"> F  </i>
   <i type="logical" name="LFXHEG"> F  </i>
   <i type="int" name="NATURALO">     0</i>
   <i type="logical" name="L2ORDER"> F  </i>
   <i type="logical" name="LUSEW"> F  </i>
   <i name="ENCUTGW">     -2.00000000</i>
   <i name="ENCUTGWSOFT">     -2.00000000</i>
   <i name="ENCUTLF">     -1.00000000</i>
   <i type="int" name="LMAXMP2">    -1</i>
   <i name="SCISSOR">      0.00000000</i>
   <i type="int" name="NOMEGA">     0</i>
   <i type="int" name="NOMEGAR">     0</i>
   <i type="int" name="NBANDSGW">    -1</i>
   <i type="int" name="NBANDSO">    -1</i>
   <i type="int" name="NBANDSV">    -1</i>
   <i type="int" name="NELM">     1</i>
   <i type="int" name="NELMHF">     1</i>
   <i type="int" name="DIM">     3</i>
   <i type="int" name="ANTIRES">     0</i>
   <i name="OMEGAMAX">    -30.00000000</i>
   <i name="OMEGAMIN">    -30.00000000</i>
   <i name="OMEGATL">   -200.00000000</i>
   <i type="int" name="OMEGAGRID">     0</i>
   <i name="CSHIFT">     -0.10000000</i>
   <i type="logical" name="SELFENERGY"> F  </i>
   <i type="logical" name="LSPECTRAL"> F  </i>
   <i type="logical" name="LSPECTRALGW"> F  </i>
   <i type="logical" name="LSINGLES"> F  </i>
   <i type="logical" name="LFERMIGW"> F  </i>
   <i type="logical" name="ODDONLYGW"> F  </i>
   <i type="logical" name="EVENONLYGW"> F  </i>
   <i type="int" name="NKREDLFX">     1</i>
   <i type="int" name="NKREDLFY">     1</i>
   <i type="int" name="NKREDLFZ">     1</i>
   <i type="int" name="MAXMEM">  1800</i>
   <i type="int" name="TELESCOPE">     0</i>
   <i type="int" name="TAUPAR">     1</i>
   <i type="int" name="OMEGAPAR">    -1</i>
   <i name="LAMBDA">      1.00000000</i>
  </separator>
  <separator name="External order field" >
   <i name="OFIELD_KAPPA">      0.00000000</i>
   <v name="OFIELD_K">      0.00000000      0.00000000      0.00000000</v>
   <i name="OFIELD_Q6_NEAR">      0.00000000</i>
   <i name="OFIELD_Q6_FAR">      0.00000000</i>
   <i name="OFIELD_A">      0.00000000</i>
  </separator>
 </parameters>
 <atominfo>
  <atoms>       8 </atoms>
  <types>       1 </types>
  <array name="atoms" >
   <dimension dim="1">ion</dimension>
   <field type="string">element</field>
   <field type="int">atomtype</field>
   <set>
    <rc><c>Si</c><c>   1</c></rc>
    <rc><c>Si</c><c>   1</c></rc>
    <rc><c>Si</c><c>   1</c></rc>
    <rc><c>Si</c><c>   1</c></rc>
    <rc><c>Si</c><c>   1</c></rc>
    <rc><c>Si</c><c>   1</c></rc>
    <rc><c>Si</c><c>   1</c></rc>
    <rc><c>Si</c><c>   1</c></rc>
   </set>
  </array>
  <array name="atomtypes" >
   <dimension dim="1">type</dimension>
   <field type="int">atomspertype</field>
   <field type="string">element</field>
   <field>mass</field>
   <field>valence</field>
   <field type="string">pseudopotential</field>
   <set>
    <rc><c>   8</c><c>Si</c><c>     28.08500000</c><c>      4.00000000</c><c>  PAW_PBE Si 05Jan2001                  </c></rc>
   </set>
  </array>
 </atominfo>
 <structure name="initialpos" >
  <crystal>
   <varray name="basis" >
    <v>       5.30608604       0.00000000       0.00000000 </v>
    <v>       0.00000000       5.41437351       0.00000000 </v>
    <v>       0.00000000       0.00000000       5.41437351 </v>
   </varray>
   <i name="volume">    155.55024949 </i>
   <varray name="rec_basis" >
    <v>       0.18846283       0.00000000       0.00000000 </v>
    <v>       0.00000000       0.18469358       0.00000000 </v>
    <v>       0.00000000       0.00000000       0.18469358 </v>
   </varray>
  </crystal>
  <varray name="positions" >
   <v>       0.00000000       0.00000000       0.00000000 </v>
   <v>       0.25000000       0.25000000       0.25000000 </v>
   <v>       0.50000000       0.50000000       0.00000000 </v>
   <v>       0.75000000       0.75000000       0.25000000 </v>
   <v>       0.50000000       0.00000000       0.50000000 </v>
   <v>       0.75000000       0.25000000       0.75000000 </v>
   <v>       0.00000000       0.50000000       0.50000000 </v>
   <v>       0.25000000       0.75000000       0.75000000 </v>
  </varray>
 </structure>
 <calculation>
  <scstep>
   <time name="dav">    1.82    1.87</time>
   <time name="total">    1.88    1.95</time>
   <energy>
    <i name="alphaZ">     13.85044626 </i>
    <i name="ewald">   -923.14576435 </i>
    <i name="hartreedc">    -42.26339904 </i>
    <i name="XCdc">    -73.95128488 </i>
    <i name="pawpsdc">    704.99039692 </i>
    <i name="pawaedc">   -564.24414232 </i>
    <i name="eentropy">      0.00120760 </i>
    <i name="bandstr">    117.52287632 </i>
    <i name="atom">    824.52596983 </i>
    <i name="e_fr_energy">     57.28630635 </i>
    <i name="e_wo_entrp">     57.28509874 </i>
    <i name="e_0_energy">     57.28600445 </i>
   </energy>
  </scstep>
  <scstep>
   <time name="dav">    2.19    2.20</time>
   <time name="total">    2.20    2.23</time>
   <energy>
    <i name="e_fr_energy">    -39.73366145 </i>
    <i name="e_wo_entrp">    -39.73370448 </i>
    <i name="e_0_energy">    -39.73367221 </i>
   </energy>
  </scstep>
  <scstep>
   <time name="dav">    2.16    2.17</time>
   <time name="total">    2.19    2.19</time>
   <energy>
    <i name="e_fr_energy">    -43.98607667 </i>
    <i name="e_wo_entrp">    -43.98605884 </i>
    <i name="e_0_energy">    -43.98607222 </i>
   </energy>
  </scstep>
  <scstep>
   <time name="dav">    2.11    2.12</time>
   <time name="total">    2.12    2.13</time>
   <energy>
    <i name="e_fr_energy">    -44.05618351 </i>
    <i name="e_wo_entrp">    -44.05616674 </i>
    <i name="e_0_energy">    -44.05617932 </i>
   </energy>
  </scstep>
  <scstep>
   <time name="dav">    2.16    2.16</time>
   <time name="total">    2.30    2.31</time>
   <energy>
    <i name="e_fr_energy">    -44.05771784 </i>
    <i name="e_wo_entrp">    -44.05770108 </i>
    <i name="e_0_energy">    -44.05771365 </i>
   </energy>
  </scstep>
  <scstep>
   <time name="dav">    2.01    2.01</time>
   <time name="total">    2.14    2.17</time>
   <energy>
    <i name="e_fr_energy">    -43.50716988 </i>
    <i name="e_wo_entrp">    -43.50715298 </i>
    <i name="e_0_energy">    -43.50716566 </i>
   </energy>
  </scstep>
  <scstep>
   <time name="dav">    1.97    1.97</time>
   <time name="total">    2.12    2.13</time>
   <energy>
    <i name="e_fr_energy">    -43.26249891 </i>
    <i name="e_wo_entrp">    -43.26246639 </i>
    <i name="e_0_energy">    -43.26249078 </i>
   </energy>
  </scstep>
  <scstep>
   <time name="dav">    2.11    2.11</time>
   <time name="total">    2.24    2.26</time>
   <energy>
    <i name="e_fr_energy">    -43.26647806 </i>
    <i name="e_wo_entrp">    -43.26645014 </i>
    <i name="e_0_energy">    -43.26647108 </i>
   </energy>
  </scstep>
  <scstep>
   <time name="dav">    2.15    2.15</time>
   <time name="total">    2.30    2.31</time>
   <energy>
    <i name="e_fr_energy">    -43.26724744 </i>
    <i name="e_wo_entrp">    -43.26721941 </i>
    <i name="e_0_energy">    -43.26724043 </i>
   </energy>
  </scstep>
  <scstep>
   <time name="dav">    2.04    2.04</time>
   <time name="total">    2.18    2.19</time>
   <energy>
    <i name="e_fr_energy">    -43.26745453 </i>
    <i name="e_wo_entrp">    -43.26742731 </i>
    <i name="e_0_energy">    -43.26744772 </i>
   </energy>
  </scstep>
  <scstep>
   <time name="dav">    1.62    1.62</time>
   <time name="total">    1.66    1.67</time>
   <energy>
    <i name="alphaZ">     13.85044626 </i>
    <i name="ewald">   -923.14576435 </i>
    <i name="hartreedc">    -58.25800503 </i>
    <i name="XCdc">    -71.31619597 </i>
    <i name="pawpsdc">   3703.20176494 </i>
    <i name="pawaedc">  -3563.45798198 </i>
    <i name="eentropy">     -0.00002730 </i>
    <i name="bandstr">     31.33233827 </i>
    <i name="atom">    824.52596983 </i>
    <i name="e_fr_energy">    -43.26745533 </i>
    <i name="e_wo_entrp">    -43.26742803 </i>
    <i name="e_0_energy">    -43.26744851 </i>
   </energy>
  </scstep>
  <structure>
   <crystal>
    <varray name="basis" >
     <v>       5.30608604       0.00000000       0.00000000 </v>
     <v>       0.00000000       5.41437351       0.00000000 </v>
     <v>       0.00000000       0.00000000       5.41437351 </v>
    </varray>
    <i name="volume">    155.55024949 </i>
    <varray name="rec_basis" >
     <v>       0.18846283       0.00000000       0.00000000 </v>
     <v>       0.00000000       0.18469358       0.00000000 </v>
     <v>       0.00000000       0.00000000       0.18469358 </v>
    </varray>
   </crystal>
   <varray name="positions" >
    <v>       0.00000000       0.00000000       0.00000000 </v>
    <v>       0.25000000       0.25000000       0.25000000 </v>
    <v>       0.50000000       0.50000000       0.00000000 </v>
    <v>       0.75000000       0.75000000       0.25000000 </v>
    <v>       0.50000000       0.00000000       0.50000000 </v>
    <v>       0.75000000       0.25000000       0.75000000 </v>
    <v>       0.00000000       0.50000000       0.50000000 </v>
    <v>       0.25000000       0.75000000       0.75000000 </v>
   </varray>
  </structure>
  <varray name="forces" >
   <v>       0.00000000       0.00000000       0.00000000 </v>
   <v>       0.00000000       0.00000000       0.00000000 </v>
   <v>       0.00000000       0.00000000       0.00000000 </v>
   <v>       0.00000000       0.00000000       0.00000000 </v>
   <v>       0.00000000       0.00000000       0.00000000 </v>
   <v>       0.00000000       0.00000000       0.00000000 </v>
   <v>       0.00000000       0.00000000       0.00000000 </v>
   <v>       0.00000000       0.00000000       0.00000000 </v>
  </varray>
  <varray name="stress" >
   <v>      61.93090749       0.00000000       0.00000000 </v>
   <v>       0.00000000      43.14253860       0.00000000 </v>
   <v>       0.00000000       0.00000000      43.14253860 </v>
  </varray>
  <energy>
   <i name="e_fr_energy">    -43.26745533 </i>
   <i name="e_wo_entrp">    -43.26744851 </i>
   <i name="e_0_energy">     -0.00002730 </i>
  </energy>
  <time name="totalsc">   25.77   26.06</time>
  <eigenvalues>
   <array>
    <dimension dim="1">band</dimension>
    <dimension dim="2">kpoint</dimension>
    <dimension dim="3">spin</dimension>
    <field>eigene</field>
    <field>occ</field>
    <set>
     <set comment="spin 1">
      <set comment="kpoint 1">
       <r>   -6.0352    1.0000 </r>
       <r>   -1.8242    1.0000 </r>
       <r>   -1.8242    1.0000 </r>
       <r>   -1.8242    1.0000 </r>
       <r>   -1.8242    1.0000 </r>
       <r>   -1.7005    1.0000 </r>
       <r>   -1.7005    1.0000 </r>
       <r>    3.0952    1.0000 </r>
       <r>    3.0952    1.0000 </r>
       <r>    3.2534    1.0000 </r>
       <r>    3.2534    1.0000 </r>
       <r>    3.2534    1.0000 </r>
       <r>    3.2534    1.0000 </r>
       <r>    6.0792    0.9957 </r>
       <r>    6.0792    0.9957 </r>
       <r>    6.2202    1.0376 </r>
       <r>    6.6692    0.0000 </r>
       <r>    6.6692    0.0000 </r>
       <r>    6.8330    0.0000 </r>
       <r>    6.8330    0.0000 </r>
       <r>    6.8330    0.0000 </r>
       <r>    6.8330    0.0000 </r>
       <r>    8.6568    0.0000 </r>
       <r>    8.7296    0.0000 </r>
      </set>
      <set comment="kpoint 2">
       <r>   -5.9785    1.0000 </r>
       <r>   -2.5601    1.0000 </r>
       <r>   -1.8039    1.0000 </r>
       <r>   -1.8039    1.0000 </r>
       <r>   -1.8039    1.0000 </r>
       <r>   -1.8039    1.0000 </r>
       <r>   -0.7775    1.0000 </r>
       <r>    3.0836    1.0000 </r>
       <r>    3.0836    1.0000 </r>
       <r>    3.0836    1.0000 </r>
       <r>    3.0836    1.0000 </r>
       <r>    3.1463    1.0000 </r>
       <r>    3.1463    1.0000 </r>
       <r>    5.8566    1.0000 </r>
       <r>    5.8566    1.0000 </r>
       <r>    5.8896    1.0000 </r>
       <r>    6.5349    0.0030 </r>
       <r>    6.9601    0.0000 </r>
       <r>    7.1431    0.0000 </r>
       <r>    7.1431    0.0000 </r>
       <r>    7.1431    0.0000 </r>
       <r>    7.1431    0.0000 </r>
       <r>    8.5175    0.0000 </r>
       <r>    9.0184    0.0000 </r>
      </set>
      <set comment="kpoint 3">
       <r>   -5.8087    1.0000 </r>
       <r>   -3.3429    1.0000 </r>
       <r>   -1.7504    1.0000 </r>
       <r>   -1.7504    1.0000 </r>
       <r>   -1.7504    1.0000 </r>
       <r>   -1.7504    1.0000 </r>
       <r>    0.1929    1.0000 </r>
       <r>    2.7196    1.0000 </r>
       <r>    2.7196    1.0000 </r>
       <r>    2.7196    1.0000 </r>
       <r>    2.7196    1.0000 </r>
       <r>    3.2988    1.0000 </r>
       <r>    3.2988    1.0000 </r>
       <r>    5.1277    1.0000 </r>
       <r>    5.3705    1.0000 </r>
       <r>    5.3705    1.0000 </r>
       <r>    6.5461    0.0022 </r>
       <r>    7.4173    0.0000 </r>
       <r>    7.9325    0.0000 </r>
       <r>    7.9325    0.0000 </r>
       <r>    7.9325    0.0000 </r>
       <r>    7.9325    0.0000 </r>
       <r>    8.1680    0.0000 </r>
       <r>    9.7009    0.0000 </r>
      </set>
      <set comment="kpoint 4">
       <r>   -5.5270    1.0000 </r>
       <r>   -4.0382    1.0000 </r>
       <r>   -1.6852    1.0000 </r>
       <r>   -1.6852    1.0000 </r>
       <r>   -1.6852    1.0000 </r>
       <r>   -1.6852    1.0000 </r>
       <r>    1.1931    1.0000 </r>
       <r>    2.3735    1.0000 </r>
       <r>    2.3735    1.0000 </r>
       <r>    2.3735    1.0000 </r>
       <r>    2.3735    1.0000 </r>
       <r>    3.5504    1.0000 </r>
       <r>    3.5504    1.0000 </r>
       <r>    4.2008    1.0000 </r>
       <r>    4.8320    1.0000 </r>
       <r>    4.8320    1.0000 </r>
       <r>    6.6900    0.0000 </r>
       <r>    7.7343    0.0000 </r>
       <r>    8.0448    0.0000 </r>
       <r>    8.9981    0.0000 </r>
       <r>    8.9981    0.0000 </r>
       <r>    8.9981    0.0000 </r>
       <r>    8.9981    0.0000 </r>
       <r>   10.5625    0.0000 </r>
      </set>
      <set comment="kpoint 5">
       <r>   -5.1357    1.0000 </r>
       <r>   -4.6379    1.0000 </r>
       <r>   -1.6398    1.0000 </r>
       <r>   -1.6398    1.0000 </r>
       <r>   -1.6398    1.0000 </r>
       <r>   -1.6398    1.0000 </r>
       <r>    2.1711    1.0000 </r>
       <r>    2.1711    1.0000 </r>
       <r>    2.1711    1.0000 </r>
       <r>    2.1711    1.0000 </r>
       <r>    2.2057    1.0000 </r>
       <r>    3.2144    1.0000 </r>
       <r>    3.8966    1.0000 </r>
       <r>    3.8966    1.0000 </r>
       <r>    4.3292    1.0000 </r>
       <r>    4.3292    1.0000 </r>
       <r>    6.9517    0.0000 </r>
       <r>    7.3105    0.0000 </r>
       <r>    8.8334    0.0000 </r>
       <r>    9.7377    0.0000 </r>
       <r>   10.1816    0.0000 </r>
       <r>   10.1816    0.0000 </r>
       <r>   10.1816    0.0000 </r>
       <r>   10.1816    0.0000 </r>
      </set>
      <set comment="kpoint 6">
       <r>   -5.9805    1.0000 </r>
       <r>   -2.6652    1.0000 </r>
       <r>   -1.8032    1.0000 </r>
       <r>   -1.8032    1.0000 </r>
       <r>   -1.6850    1.0000 </r>
       <r>   -1.6850    1.0000 </r>
       <r>   -0.9164    1.0000 </r>
       <r>    2.9464    1.0000 </r>
       <r>    2.9464    1.0000 </r>
       <r>    3.0943    1.0000 </r>
       <r>    3.0943    1.0000 </r>
       <r>    3.2983    1.0000 </r>
       <r>    3.3069    1.0000 </r>
       <r>    5.7552    1.0000 </r>
       <r>    5.8687    1.0000 </r>
       <r>    5.9916    0.9998 </r>
       <r>    6.7147    0.0000 </r>
       <r>    6.9575    0.0000 </r>
       <r>    6.9575    0.0000 </r>
       <r>    7.0967    0.0000 </r>
       <r>    7.1262    0.0000 </r>
       <r>    7.1262    0.0000 </r>
       <r>    8.6003    0.0000 </r>
       <r>    8.9331    0.0000 </r>
      </set>
      <set comment="kpoint 7">
       <r>   -5.9239    1.0000 </r>
       <r>   -2.6324    1.0000 </r>
       <r>   -2.5306    1.0000 </r>
       <r>   -1.8679    1.0000 </r>
       <r>   -1.7044    1.0000 </r>
       <r>   -0.9156    1.0000 </r>
       <r>   -0.7843    1.0000 </r>
       <r>    2.6420    1.0000 </r>
       <r>    2.9685    1.0000 </r>
       <r>    3.0381    1.0000 </r>
       <r>    3.1023    1.0000 </r>
       <r>    3.1736    1.0000 </r>
       <r>    3.3422    1.0000 </r>
       <r>    5.2659    1.0000 </r>
       <r>    5.6447    1.0000 </r>
       <r>    6.1085    0.9957 </r>
       <r>    6.8391    0.0000 </r>
       <r>    6.9367    0.0000 </r>
       <r>    7.0391    0.0000 </r>
       <r>    7.2282    0.0000 </r>
       <r>    7.3880    0.0000 </r>
       <r>    7.8064    0.0000 </r>
       <r>    8.7850    0.0000 </r>
       <r>    8.9097    0.0000 </r>
      </set>
      <set comment="kpoint 8">
       <r>   -5.7547    1.0000 </r>
       <r>   -3.3044    1.0000 </r>
       <r>   -2.5386    1.0000 </r>
       <r>   -1.9190    1.0000 </r>
       <r>   -1.5654    1.0000 </r>
       <r>   -0.9231    1.0000 </r>
       <r>    0.1504    1.0000 </r>
       <r>    2.2005    1.0000 </r>
       <r>    2.6783    1.0000 </r>
       <r>    2.8966    1.0000 </r>
       <r>    3.1009    1.0000 </r>
       <r>    3.2466    1.0000 </r>
       <r>    3.2517    1.0000 </r>
       <r>    4.5367    1.0000 </r>
       <r>    5.1547    1.0000 </r>
       <r>    5.7979    1.0000 </r>
       <r>    6.8610    0.0000 </r>
       <r>    7.3624    0.0000 </r>
       <r>    7.6613    0.0000 </r>
       <r>    7.8502    0.0000 </r>
       <r>    8.1450    0.0000 </r>
       <r>    8.4598    0.0000 </r>
       <r>    8.7793    0.0000 </r>
       <r>    9.4233    0.0000 </r>
      </set>
      <set comment="kpoint 9">
       <r>   -5.4742    1.0000 </r>
       <r>   -3.9938    1.0000 </r>
       <r>   -2.3988    1.0000 </r>
       <r>   -1.9860    1.0000 </r>
       <r>   -1.3948    1.0000 </r>
       <r>   -0.9645    1.0000 </r>
       <r>    1.0938    1.0000 </r>
       <r>    1.9012    1.0000 </r>
       <r>    2.2489    1.0000 </r>
       <r>    2.6686    1.0000 </r>
       <r>    2.9758    1.0000 </r>
       <r>    3.3395    1.0000 </r>
       <r>    3.5748    1.0000 </r>
       <r>    3.7440    1.0000 </r>
       <r>    4.6125    1.0000 </r>
       <r>    5.2088    1.0000 </r>
       <r>    7.0105    0.0000 </r>
       <r>    8.0403    0.0000 </r>
       <r>    8.2481    0.0000 </r>
       <r>    8.2623    0.0000 </r>
       <r>    8.9315    0.0000 </r>
       <r>    9.1818    0.0000 </r>
       <r>    9.9253    0.0000 </r>
       <r>   10.0679    0.0000 </r>
      </set>
      <set comment="kpoint 10">
       <r>   -5.0847    1.0000 </r>
       <r>   -4.5896    1.0000 </r>
       <r>   -2.2392    1.0000 </r>
       <r>   -2.0929    1.0000 </r>
       <r>   -1.2158    1.0000 </r>
       <r>   -1.0629    1.0000 </r>
       <r>    1.8092    1.0000 </r>
       <r>    1.9363    1.0000 </r>
       <r>    2.0192    1.0000 </r>
       <r>    2.6014    1.0000 </r>
       <r>    2.7198    1.0000 </r>
       <r>    2.9054    1.0000 </r>
       <r>    3.6784    1.0000 </r>
       <r>    4.0231    1.0000 </r>
       <r>    4.1084    1.0000 </r>
       <r>    4.5811    1.0000 </r>
       <r>    7.2724    0.0000 </r>
       <r>    7.6263    0.0000 </r>
       <r>    9.0229    0.0000 </r>
       <r>    9.3811    0.0000 </r>
       <r>    9.8809    0.0000 </r>
       <r>   10.1564    0.0000 </r>
       <r>   10.2023    0.0000 </r>
       <r>   11.0141    0.0000 </r>
      </set>
      <set comment="kpoint 11">
       <r>   -5.8165    1.0000 </r>
       <r>   -3.4280    1.0000 </r>
       <r>   -1.7464    1.0000 </r>
       <r>   -1.7464    1.0000 </r>
       <r>   -1.6459    1.0000 </r>
       <r>   -1.6459    1.0000 </r>
       <r>    0.0443    1.0000 </r>
       <r>    2.6266    1.0000 </r>
       <r>    2.6266    1.0000 </r>
       <r>    2.7476    1.0000 </r>
       <r>    2.7476    1.0000 </r>
       <r>    3.4407    1.0000 </r>
       <r>    3.4583    1.0000 </r>
       <r>    4.9987    1.0000 </r>
       <r>    5.4075    1.0000 </r>
       <r>    5.5016    1.0000 </r>
       <r>    6.7320    0.0000 </r>
       <r>    7.5145    0.0000 </r>
       <r>    7.7010    0.0000 </r>
       <r>    7.7010    0.0000 </r>
       <r>    7.8785    0.0000 </r>
       <r>    7.8785    0.0000 </r>
       <r>    8.2744    0.0000 </r>
       <r>    9.5904    0.0000 </r>
      </set>
      <set comment="kpoint 12">
       <r>   -5.7606    1.0000 </r>
       <r>   -3.3868    1.0000 </r>
       <r>   -2.4469    1.0000 </r>
       <r>   -1.9149    1.0000 </r>
       <r>   -1.5632    1.0000 </r>
       <r>   -0.8140    1.0000 </r>
       <r>    0.0146    1.0000 </r>
       <r>    2.2127    1.0000 </r>
       <r>    2.5813    1.0000 </r>
       <r>    2.8162    1.0000 </r>
       <r>    3.2265    1.0000 </r>
       <r>    3.2826    1.0000 </r>
       <r>    3.3749    1.0000 </r>
       <r>    4.5118    1.0000 </r>
       <r>    5.1795    1.0000 </r>
       <r>    5.8208    1.0000 </r>
       <r>    7.0654    0.0000 </r>
       <r>    7.3129    0.0000 </r>
       <r>    7.6078    0.0000 </r>
       <r>    7.7828    0.0000 </r>
       <r>    7.9354    0.0000 </r>
       <r>    8.5782    0.0000 </r>
       <r>    8.7461    0.0000 </r>
       <r>    9.4539    0.0000 </r>
      </set>
      <set comment="kpoint 13">
       <r>   -5.5934    1.0000 </r>
       <r>   -3.2665    1.0000 </r>
       <r>   -3.1919    1.0000 </r>
       <r>   -2.0970    1.0000 </r>
       <r>   -1.3460    1.0000 </r>
       <r>   -0.0836    1.0000 </r>
       <r>    0.0185    1.0000 </r>
       <r>    1.8142    1.0000 </r>
       <r>    2.6692    1.0000 </r>
       <r>    2.7627    1.0000 </r>
       <r>    3.1606    1.0000 </r>
       <r>    3.2191    1.0000 </r>
       <r>    3.6025    1.0000 </r>
       <r>    3.7954    1.0000 </r>
       <r>    4.6812    1.0000 </r>
       <r>    5.9370    1.0000 </r>
       <r>    7.2418    0.0000 </r>
       <r>    7.6444    0.0000 </r>
       <r>    7.8880    0.0000 </r>
       <r>    8.3219    0.0000 </r>
       <r>    8.4971    0.0000 </r>
       <r>    9.1236    0.0000 </r>
       <r>    9.2795    0.0000 </r>
       <r>    9.3635    0.0000 </r>
      </set>
      <set comment="kpoint 14">
       <r>   -5.3164    1.0000 </r>
       <r>   -3.8625    1.0000 </r>
       <r>   -3.0766    1.0000 </r>
       <r>   -2.3158    1.0000 </r>
       <r>   -1.0897    1.0000 </r>
       <r>   -0.2636    1.0000 </r>
       <r>    0.8236    1.0000 </r>
       <r>    1.6217    1.0000 </r>
       <r>    2.2778    1.0000 </r>
       <r>    2.8797    1.0000 </r>
       <r>    3.0609    1.0000 </r>
       <r>    3.1410    1.0000 </r>
       <r>    3.5871    1.0000 </r>
       <r>    3.6594    1.0000 </r>
       <r>    4.1323    1.0000 </r>
       <r>    5.5896    1.0000 </r>
       <r>    7.7694    0.0000 </r>
       <r>    7.7982    0.0000 </r>
       <r>    8.7762    0.0000 </r>
       <r>    8.8681    0.0000 </r>
       <r>    8.9734    0.0000 </r>
       <r>    9.4885    0.0000 </r>
       <r>    9.5453    0.0000 </r>
       <r>   10.2575    0.0000 </r>
      </set>
      <set comment="kpoint 15">
       <r>   -4.9324    1.0000 </r>
       <r>   -4.4457    1.0000 </r>
       <r>   -2.8354    1.0000 </r>
       <r>   -2.5705    1.0000 </r>
       <r>   -0.8042    1.0000 </r>
       <r>   -0.5157    1.0000 </r>
       <r>    1.5900    1.0000 </r>
       <r>    1.6533    1.0000 </r>
       <r>    1.8869    1.0000 </r>
       <r>    2.3290    1.0000 </r>
       <r>    3.2030    1.0000 </r>
       <r>    3.2072    1.0000 </r>
       <r>    3.3910    1.0000 </r>
       <r>    3.6269    1.0000 </r>
       <r>    4.2851    1.0000 </r>
       <r>    4.9693    1.0000 </r>
       <r>    8.0542    0.0000 </r>
       <r>    8.3914    0.0000 </r>
       <r>    8.7290    0.0000 </r>
       <r>    9.5660    0.0000 </r>
       <r>    9.8566    0.0000 </r>
       <r>   10.0368    0.0000 </r>
       <r>   10.2059    0.0000 </r>
       <r>   10.5585    0.0000 </r>
      </set>
      <set comment="kpoint 16">
       <r>   -5.5445    1.0000 </r>
       <r>   -4.1034    1.0000 </r>
       <r>   -1.6728    1.0000 </r>
       <r>   -1.6728    1.0000 </r>
       <r>   -1.6036    1.0000 </r>
       <r>   -1.6036    1.0000 </r>
       <r>    1.0415    1.0000 </r>
       <r>    2.3277    1.0000 </r>
       <r>    2.3277    1.0000 </r>
       <r>    2.4086    1.0000 </r>
       <r>    2.4086    1.0000 </r>
       <r>    3.6782    1.0000 </r>
       <r>    3.7058    1.0000 </r>
       <r>    4.0690    1.0000 </r>
       <r>    4.8956    1.0000 </r>
       <r>    4.9665    1.0000 </r>
       <r>    6.8730    0.0000 </r>
       <r>    7.8665    0.0000 </r>
       <r>    8.0914    0.0000 </r>
       <r>    8.7168    0.0000 </r>
       <r>    8.7168    0.0000 </r>
       <r>    8.9014    0.0000 </r>
       <r>    8.9014    0.0000 </r>
       <r>   10.4260    0.0000 </r>
      </set>
      <set comment="kpoint 17">
       <r>   -5.4897    1.0000 </r>
       <r>   -4.0567    1.0000 </r>
       <r>   -2.3235    1.0000 </r>
       <r>   -1.9715    1.0000 </r>
       <r>   -1.3868    1.0000 </r>
       <r>   -0.8874    1.0000 </r>
       <r>    0.9642    1.0000 </r>
       <r>    1.9153    1.0000 </r>
       <r>    2.1901    1.0000 </r>
       <r>    2.6475    1.0000 </r>
       <r>    3.0286    1.0000 </r>
       <r>    3.4525    1.0000 </r>
       <r>    3.6899    1.0000 </r>
       <r>    3.6921    1.0000 </r>
       <r>    4.6636    1.0000 </r>
       <r>    5.2540    1.0000 </r>
       <r>    7.2107    0.0000 </r>
       <r>    8.1452    0.0000 </r>
       <r>    8.1861    0.0000 </r>
       <r>    8.3339    0.0000 </r>
       <r>    8.6425    0.0000 </r>
       <r>    8.9197    0.0000 </r>
       <r>    9.8499    0.0000 </r>
       <r>   10.1464    0.0000 </r>
      </set>
      <set comment="kpoint 18">
       <r>   -5.3260    1.0000 </r>
       <r>   -3.9186    1.0000 </r>
       <r>   -3.0147    1.0000 </r>
       <r>   -2.3051    1.0000 </r>
       <r>   -1.0859    1.0000 </r>
       <r>   -0.2016    1.0000 </r>
       <r>    0.7409    1.0000 </r>
       <r>    1.6226    1.0000 </r>
       <r>    2.2168    1.0000 </r>
       <r>    2.9637    1.0000 </r>
       <r>    3.0460    1.0000 </r>
       <r>    3.1525    1.0000 </r>
       <r>    3.6345    1.0000 </r>
       <r>    3.6900    1.0000 </r>
       <r>    4.1582    1.0000 </r>
       <r>    5.5850    1.0000 </r>
       <r>    7.6926    0.0000 </r>
       <r>    8.0349    0.0000 </r>
       <r>    8.6861    0.0000 </r>
       <r>    8.9488    0.0000 </r>
       <r>    8.9966    0.0000 </r>
       <r>    9.2606    0.0000 </r>
       <r>    9.6134    0.0000 </r>
       <r>   10.0854    0.0000 </r>
      </set>
      <set comment="kpoint 19">
       <r>   -5.0554    1.0000 </r>
       <r>   -3.6954    1.0000 </r>
       <r>   -3.6501    1.0000 </r>
       <r>   -2.6727    1.0000 </r>
       <r>   -0.7518    1.0000 </r>
       <r>    0.4063    1.0000 </r>
       <r>    0.4480    1.0000 </r>
       <r>    1.5531    1.0000 </r>
       <r>    2.3729    1.0000 </r>
       <r>    2.3889    1.0000 </r>
       <r>    2.4436    1.0000 </r>
       <r>    3.6056    1.0000 </r>
       <r>    3.7694    1.0000 </r>
       <r>    3.8101    1.0000 </r>
       <r>    4.0146    1.0000 </r>
       <r>    5.5970    1.0000 </r>
       <r>    7.7266    0.0000 </r>
       <r>    8.8357    0.0000 </r>
       <r>    9.1126    0.0000 </r>
       <r>    9.3033    0.0000 </r>
       <r>    9.6787    0.0000 </r>
       <r>    9.7447    0.0000 </r>
       <r>    9.9099    0.0000 </r>
       <r>   10.0071    0.0000 </r>
      </set>
      <set comment="kpoint 20">
       <r>   -4.6814    1.0000 </r>
       <r>   -4.2101    1.0000 </r>
       <r>   -3.3989    1.0000 </r>
       <r>   -3.0485    1.0000 </r>
       <r>   -0.3805    1.0000 </r>
       <r>    0.0158    1.0000 </r>
       <r>    1.0790    1.0000 </r>
       <r>    1.6906    1.0000 </r>
       <r>    1.7158    1.0000 </r>
       <r>    2.0009    1.0000 </r>
       <r>    2.6897    1.0000 </r>
       <r>    3.1025    1.0000 </r>
       <r>    3.9219    1.0000 </r>
       <r>    4.0615    1.0000 </r>
       <r>    4.5383    1.0000 </r>
       <r>    5.1996    1.0000 </r>
       <r>    8.3290    0.0000 </r>
       <r>    9.0753    0.0000 </r>
       <r>    9.3224    0.0000 </r>
       <r>    9.3812    0.0000 </r>
       <r>    9.3831    0.0000 </r>
       <r>    9.7790    0.0000 </r>
       <r>   10.3327    0.0000 </r>
       <r>   10.4051    0.0000 </r>
      </set>
      <set comment="kpoint 21">
       <r>   -5.1663    1.0000 </r>
       <r>   -4.6846    1.0000 </r>
       <r>   -1.6106    1.0000 </r>
       <r>   -1.6106    1.0000 </r>
       <r>   -1.5857    1.0000 </r>
       <r>   -1.5857    1.0000 </r>
       <r>    2.0579    1.0000 </r>
       <r>    2.1669    1.0000 </r>
       <r>    2.1669    1.0000 </r>
       <r>    2.1957    1.0000 </r>
       <r>    2.1957    1.0000 </r>
       <r>    3.0747    1.0000 </r>
       <r>    4.0065    1.0000 </r>
       <r>    4.0457    1.0000 </r>
       <r>    4.4174    1.0000 </r>
       <r>    4.4706    1.0000 </r>
       <r>    7.1242    0.0000 </r>
       <r>    7.4656    0.0000 </r>
       <r>    8.8231    0.0000 </r>
       <r>    9.6789    0.0000 </r>
       <r>    9.8651    0.0000 </r>
       <r>    9.8651    0.0000 </r>
       <r>   10.0323    0.0000 </r>
       <r>   10.0323    0.0000 </r>
      </set>
      <set comment="kpoint 22">
       <r>   -5.1132    1.0000 </r>
       <r>   -4.6342    1.0000 </r>
       <r>   -2.1850    1.0000 </r>
       <r>   -2.0607    1.0000 </r>
       <r>   -1.1948    1.0000 </r>
       <r>   -1.0181    1.0000 </r>
       <r>    1.8104    1.0000 </r>
       <r>    1.9081    1.0000 </r>
       <r>    1.9116    1.0000 </r>
       <r>    2.6280    1.0000 </r>
       <r>    2.7719    1.0000 </r>
       <r>    2.8225    1.0000 </r>
       <r>    3.7745    1.0000 </r>
       <r>    4.1185    1.0000 </r>
       <r>    4.1837    1.0000 </r>
       <r>    4.6518    1.0000 </r>
       <r>    7.4608    0.0000 </r>
       <r>    7.7962    0.0000 </r>
       <r>    9.0383    0.0000 </r>
       <r>    9.2314    0.0000 </r>
       <r>    9.8255    0.0000 </r>
       <r>    9.8602    0.0000 </r>
       <r>    9.9455    0.0000 </r>
       <r>   10.7936    0.0000 </r>
      </set>
      <set comment="kpoint 23">
       <r>   -4.9550    1.0000 </r>
       <r>   -4.4840    1.0000 </r>
       <r>   -2.7901    1.0000 </r>
       <r>   -2.5435    1.0000 </r>
       <r>   -0.7918    1.0000 </r>
       <r>   -0.4852    1.0000 </r>
       <r>    1.5333    1.0000 </r>
       <r>    1.6424    1.0000 </r>
       <r>    1.8543    1.0000 </r>
       <r>    2.2962    1.0000 </r>
       <r>    3.2644    1.0000 </r>
       <r>    3.2720    1.0000 </r>
       <r>    3.4606    1.0000 </r>
       <r>    3.6762    1.0000 </r>
       <r>    4.2906    1.0000 </r>
       <r>    4.9624    1.0000 </r>
       <r>    8.2762    0.0000 </r>
       <r>    8.5891    0.0000 </r>
       <r>    8.5920    0.0000 </r>
       <r>    9.6441    0.0000 </r>
       <r>    9.6823    0.0000 </r>
       <r>    9.8771    0.0000 </r>
       <r>   10.2094    0.0000 </r>
       <r>   10.4980    0.0000 </r>
      </set>
      <set comment="kpoint 24">
       <r>   -4.6943    1.0000 </r>
       <r>   -4.2384    1.0000 </r>
       <r>   -3.3677    1.0000 </r>
       <r>   -3.0334    1.0000 </r>
       <r>   -0.3750    1.0000 </r>
       <r>    0.0332    1.0000 </r>
       <r>    1.0554    1.0000 </r>
       <r>    1.6801    1.0000 </r>
       <r>    1.7053    1.0000 </r>
       <r>    1.9714    1.0000 </r>
       <r>    2.7313    1.0000 </r>
       <r>    3.1255    1.0000 </r>
       <r>    3.9940    1.0000 </r>
       <r>    4.1178    1.0000 </r>
       <r>    4.4868    1.0000 </r>
       <r>    5.1652    1.0000 </r>
       <r>    8.2347    0.0000 </r>
       <r>    9.1690    0.0000 </r>
       <r>    9.3340    0.0000 </r>
       <r>    9.4746    0.0000 </r>
       <r>    9.6125    0.0000 </r>
       <r>    9.9217    0.0000 </r>
       <r>   10.0171    0.0000 </r>
       <r>   10.5739    0.0000 </r>
      </set>
      <set comment="kpoint 25">
       <r>   -4.3365    1.0000 </r>
       <r>   -3.9050    1.0000 </r>
       <r>   -3.8899    1.0000 </r>
       <r>   -3.4967    1.0000 </r>
       <r>    0.0732    1.0000 </r>
       <r>    0.5551    1.0000 </r>
       <r>    0.5628    1.0000 </r>
       <r>    1.1200    1.0000 </r>
       <r>    1.8949    1.0000 </r>
       <r>    2.2382    1.0000 </r>
       <r>    2.2562    1.0000 </r>
       <r>    2.6317    1.0000 </r>
       <r>    4.5377    1.0000 </r>
       <r>    4.6189    1.0000 </r>
       <r>    4.6722    1.0000 </r>
       <r>    5.0998    1.0000 </r>
       <r>    8.3382    0.0000 </r>
       <r>    8.8626    0.0000 </r>
       <r>    8.9479    0.0000 </r>
       <r>    8.9598    0.0000 </r>
       <r>   10.2296    0.0000 </r>
       <r>   10.4511    0.0000 </r>
       <r>   10.5199    0.0000 </r>
       <r>   10.8439    0.0000 </r>
      </set>
      <set comment="kpoint 26">
       <r>   -5.9259    1.0000 </r>
       <r>   -2.6326    1.0000 </r>
       <r>   -2.6326    1.0000 </r>
       <r>   -1.7629    1.0000 </r>
       <r>   -1.5831    1.0000 </r>
       <r>   -0.9134    1.0000 </r>
       <r>   -0.9134    1.0000 </r>
       <r>    2.5363    1.0000 </r>
       <r>    3.1230    1.0000 </r>
       <r>    3.1230    1.0000 </r>
       <r>    3.1732    1.0000 </r>
       <r>    3.1732    1.0000 </r>
       <r>    3.1831    1.0000 </r>
       <r>    5.2332    1.0000 </r>
       <r>    5.7651    1.0000 </r>
       <r>    6.0234    0.9991 </r>
       <r>    6.7705    0.0000 </r>
       <r>    7.0219    0.0000 </r>
       <r>    7.0219    0.0000 </r>
       <r>    7.3718    0.0000 </r>
       <r>    7.3718    0.0000 </r>
       <r>    7.6034    0.0000 </r>
       <r>    8.8417    0.0000 </r>
       <r>    8.9642    0.0000 </r>
      </set>
      <set comment="kpoint 27">
       <r>   -5.8696    1.0000 </r>
       <r>   -2.6051    1.0000 </r>
       <r>   -2.6051    1.0000 </r>
       <r>   -2.5072    1.0000 </r>
       <r>   -0.9157    1.0000 </r>
       <r>   -0.9157    1.0000 </r>
       <r>   -0.7943    1.0000 </r>
       <r>    2.6108    1.0000 </r>
       <r>    2.7106    1.0000 </r>
       <r>    2.7106    1.0000 </r>
       <r>    3.2333    1.0000 </r>
       <r>    3.3906    1.0000 </r>
       <r>    3.3906    1.0000 </r>
       <r>    4.7742    1.0000 </r>
       <r>    5.8274    1.0000 </r>
       <r>    5.9382    1.0000 </r>
       <r>    6.8112    0.0000 </r>
       <r>    6.9797    0.0000 </r>
       <r>    6.9797    0.0000 </r>
       <r>    7.7131    0.0000 </r>
       <r>    7.9027    0.0000 </r>
       <r>    7.9027    0.0000 </r>
       <r>    8.7360    0.0000 </r>
       <r>    9.0543    0.0000 </r>
      </set>
      <set comment="kpoint 28">
       <r>   -5.7011    1.0000 </r>
       <r>   -3.2686    1.0000 </r>
       <r>   -2.5305    1.0000 </r>
       <r>   -2.5305    1.0000 </r>
       <r>   -0.9287    1.0000 </r>
       <r>   -0.9287    1.0000 </r>
       <r>    0.0939    1.0000 </r>
       <r>    2.2883    1.0000 </r>
       <r>    2.2883    1.0000 </r>
       <r>    2.8370    1.0000 </r>
       <r>    3.3113    1.0000 </r>
       <r>    3.3113    1.0000 </r>
       <r>    3.3832    1.0000 </r>
       <r>    4.0597    1.0000 </r>
       <r>    5.3821    1.0000 </r>
       <r>    5.7332    1.0000 </r>
       <r>    6.9375    0.0000 </r>
       <r>    7.4172    0.0000 </r>
       <r>    7.4172    0.0000 </r>
       <r>    8.0361    0.0000 </r>
       <r>    8.5999    0.0000 </r>
       <r>    8.8553    0.0000 </r>
       <r>    8.8553    0.0000 </r>
       <r>    9.1791    0.0000 </r>
      </set>
      <set comment="kpoint 29">
       <r>   -5.4218    1.0000 </r>
       <r>   -3.9509    1.0000 </r>
       <r>   -2.4349    1.0000 </r>
       <r>   -2.4349    1.0000 </r>
       <r>   -0.9600    1.0000 </r>
       <r>   -0.9600    1.0000 </r>
       <r>    0.9663    1.0000 </r>
       <r>    1.9966    1.0000 </r>
       <r>    1.9966    1.0000 </r>
       <r>    3.0699    1.0000 </r>
       <r>    3.0699    1.0000 </r>
       <r>    3.2213    1.0000 </r>
       <r>    3.3189    1.0000 </r>
       <r>    3.6301    1.0000 </r>
       <r>    4.8729    1.0000 </r>
       <r>    5.1349    1.0000 </r>
       <r>    7.1547    0.0000 </r>
       <r>    8.2435    0.0000 </r>
       <r>    8.3008    0.0000 </r>
       <r>    8.3008    0.0000 </r>
       <r>    8.5600    0.0000 </r>
       <r>    9.8067    0.0000 </r>
       <r>    9.9886    0.0000 </r>
       <r>    9.9886    0.0000 </r>
      </set>
      <set comment="kpoint 30">
       <r>   -5.0342    1.0000 </r>
       <r>   -4.5420    1.0000 </r>
       <r>   -2.3640    1.0000 </r>
       <r>   -2.3640    1.0000 </r>
       <r>   -0.9934    1.0000 </r>
       <r>   -0.9934    1.0000 </r>
       <r>    1.7932    1.0000 </r>
       <r>    1.8634    1.0000 </r>
       <r>    1.8634    1.0000 </r>
       <r>    2.5702    1.0000 </r>
       <r>    2.8857    1.0000 </r>
       <r>    2.8857    1.0000 </r>
       <r>    3.7617    1.0000 </r>
       <r>    3.9686    1.0000 </r>
       <r>    4.3890    1.0000 </r>
       <r>    4.4261    1.0000 </r>
       <r>    7.4589    0.0000 </r>
       <r>    7.8339    0.0000 </r>
       <r>    9.2636    0.0000 </r>
       <r>    9.4249    0.0000 </r>
       <r>    9.4249    0.0000 </r>
       <r>   10.0444    0.0000 </r>
       <r>   10.6815    0.0000 </r>
       <r>   10.6815    0.0000 </r>
      </set>
      <set comment="kpoint 31">
       <r>   -5.7626    1.0000 </r>
       <r>   -3.3876    1.0000 </r>
       <r>   -2.5386    1.0000 </r>
       <r>   -1.8365    1.0000 </r>
       <r>   -1.4507    1.0000 </r>
       <r>   -0.9134    1.0000 </r>
       <r>    0.0188    1.0000 </r>
       <r>    2.1462    1.0000 </r>
       <r>    2.7198    1.0000 </r>
       <r>    2.9079    1.0000 </r>
       <r>    3.1225    1.0000 </r>
       <r>    3.2568    1.0000 </r>
       <r>    3.3619    1.0000 </r>
       <r>    4.5044    1.0000 </r>
       <r>    5.2766    1.0000 </r>
       <r>    5.7306    1.0000 </r>
       <r>    7.0488    0.0000 </r>
       <r>    7.1568    0.0000 </r>
       <r>    7.7681    0.0000 </r>
       <r>    7.7967    0.0000 </r>
       <r>    8.0923    0.0000 </r>
       <r>    8.5311    0.0000 </r>
       <r>    8.5761    0.0000 </r>
       <r>    9.3301    0.0000 </r>
      </set>
      <set comment="kpoint 32">
       <r>   -5.7069    1.0000 </r>
       <r>   -3.3490    1.0000 </r>
       <r>   -2.5302    1.0000 </r>
       <r>   -2.4449    1.0000 </r>
       <r>   -0.9214    1.0000 </r>
       <r>   -0.8282    1.0000 </r>
       <r>   -0.0231    1.0000 </r>
       <r>    2.2426    1.0000 </r>
       <r>    2.3019    1.0000 </r>
       <r>    2.9189    1.0000 </r>
       <r>    3.1850    1.0000 </r>
       <r>    3.3381    1.0000 </r>
       <r>    3.5353    1.0000 </r>
       <r>    4.0561    1.0000 </r>
       <r>    5.4601    1.0000 </r>
       <r>    5.6749    1.0000 </r>
       <r>    7.1098    0.0000 </r>
       <r>    7.2143    0.0000 </r>
       <r>    7.3690    0.0000 </r>
       <r>    8.1894    0.0000 </r>
       <r>    8.6157    0.0000 </r>
       <r>    8.7144    0.0000 </r>
       <r>    8.8224    0.0000 </r>
       <r>    9.1150    0.0000 </r>
      </set>
      <set comment="kpoint 33">
       <r>   -5.5405    1.0000 </r>
       <r>   -3.2372    1.0000 </r>
       <r>   -3.1653    1.0000 </r>
       <r>   -2.5216    1.0000 </r>
       <r>   -0.9356    1.0000 </r>
       <r>   -0.1534    1.0000 </r>
       <r>   -0.0715    1.0000 </r>
       <r>    1.9515    1.0000 </r>
       <r>    2.5260    1.0000 </r>
       <r>    2.5489    1.0000 </r>
       <r>    3.3518    1.0000 </r>
       <r>    3.3781    1.0000 </r>
       <r>    3.4940    1.0000 </r>
       <r>    3.6482    1.0000 </r>
       <r>    5.0587    1.0000 </r>
       <r>    5.8099    1.0000 </r>
       <r>    7.3060    0.0000 </r>
       <r>    7.3824    0.0000 </r>
       <r>    7.5782    0.0000 </r>
       <r>    8.7295    0.0000 </r>
       <r>    8.8725    0.0000 </r>
       <r>    9.0859    0.0000 </r>
       <r>    9.2835    0.0000 </r>
       <r>    9.6396    0.0000 </r>
      </set>
      <set comment="kpoint 34">
       <r>   -5.2651    1.0000 </r>
       <r>   -3.8243    1.0000 </r>
       <r>   -3.0664    1.0000 </r>
       <r>   -2.5580    1.0000 </r>
       <r>   -0.9161    1.0000 </r>
       <r>   -0.3639    1.0000 </r>
       <r>    0.6411    1.0000 </r>
       <r>    1.8044    1.0000 </r>
       <r>    2.2570    1.0000 </r>
       <r>    2.6457    1.0000 </r>
       <r>    2.9615    1.0000 </r>
       <r>    3.3628    1.0000 </r>
       <r>    3.6422    1.0000 </r>
       <r>    3.7209    1.0000 </r>
       <r>    4.5309    1.0000 </r>
       <r>    5.4836    1.0000 </r>
       <r>    7.6481    0.0000 </r>
       <r>    7.8293    0.0000 </r>
       <r>    8.4557    0.0000 </r>
       <r>    8.6850    0.0000 </r>
       <r>    9.3086    0.0000 </r>
       <r>    9.4651    0.0000 </r>
       <r>   10.1743    0.0000 </r>
       <r>   10.1802    0.0000 </r>
      </set>
      <set comment="kpoint 35">
       <r>   -4.8836    1.0000 </r>
       <r>   -4.4009    1.0000 </r>
       <r>   -2.8645    1.0000 </r>
       <r>   -2.6775    1.0000 </r>
       <r>   -0.8083    1.0000 </r>
       <r>   -0.6063    1.0000 </r>
       <r>    1.3103    1.0000 </r>
       <r>    1.8480    1.0000 </r>
       <r>    1.9683    1.0000 </r>
       <r>    2.0204    1.0000 </r>
       <r>    3.3436    1.0000 </r>
       <r>    3.4704    1.0000 </r>
       <r>    3.4732    1.0000 </r>
       <r>    3.9950    1.0000 </r>
       <r>    4.2347    1.0000 </r>
       <r>    4.8734    1.0000 </r>
       <r>    7.9892    0.0000 </r>
       <r>    8.3676    0.0000 </r>
       <r>    8.7800    0.0000 </r>
       <r>    9.5409    0.0000 </r>
       <r>    9.9182    0.0000 </r>
       <r>   10.0250    0.0000 </r>
       <r>   10.0356    0.0000 </r>
       <r>   10.7509    0.0000 </r>
      </set>
      <set comment="kpoint 36">
       <r>   -5.4916    1.0000 </r>
       <r>   -4.0580    1.0000 </r>
       <r>   -2.3964    1.0000 </r>
       <r>   -1.9315    1.0000 </r>
       <r>   -1.2957    1.0000 </r>
       <r>   -0.9392    1.0000 </r>
       <r>    0.9711    1.0000 </r>
       <r>    1.8963    1.0000 </r>
       <r>    2.3035    1.0000 </r>
       <r>    2.6787    1.0000 </r>
       <r>    2.8914    1.0000 </r>
       <r>    3.4925    1.0000 </r>
       <r>    3.6619    1.0000 </r>
       <r>    3.6985    1.0000 </r>
       <r>    4.7415    1.0000 </r>
       <r>    5.1743    1.0000 </r>
       <r>    7.1953    0.0000 </r>
       <r>    7.9882    0.0000 </r>
       <r>    8.1797    0.0000 </r>
       <r>    8.3211    0.0000 </r>
       <r>    8.8370    0.0000 </r>
       <r>    9.0860    0.0000 </r>
       <r>    9.6313    0.0000 </r>
       <r>    9.9764    0.0000 </r>
      </set>
      <set comment="kpoint 37">
       <r>   -5.4371    1.0000 </r>
       <r>   -4.0126    1.0000 </r>
       <r>   -2.4307    1.0000 </r>
       <r>   -2.3698    1.0000 </r>
       <r>   -0.9396    1.0000 </r>
       <r>   -0.8855    1.0000 </r>
       <r>    0.8686    1.0000 </r>
       <r>    1.9958    1.0000 </r>
       <r>    2.0173    1.0000 </r>
       <r>    2.9960    1.0000 </r>
       <r>    3.1112    1.0000 </r>
       <r>    3.2721    1.0000 </r>
       <r>    3.3076    1.0000 </r>
       <r>    3.7738    1.0000 </r>
       <r>    4.9600    1.0000 </r>
       <r>    5.0975    1.0000 </r>
       <r>    7.3270    0.0000 </r>
       <r>    8.0449    0.0000 </r>
       <r>    8.2003    0.0000 </r>
       <r>    8.3823    0.0000 </r>
       <r>    8.6612    0.0000 </r>
       <r>    9.7023    0.0000 </r>
       <r>    9.7484    0.0000 </r>
       <r>    9.9130    0.0000 </r>
      </set>
      <set comment="kpoint 38">
       <r>   -5.2746    1.0000 </r>
       <r>   -3.8792    1.0000 </r>
       <r>   -3.0084    1.0000 </r>
       <r>   -2.5522    1.0000 </r>
       <r>   -0.9069    1.0000 </r>
       <r>   -0.3169    1.0000 </r>
       <r>    0.5888    1.0000 </r>
       <r>    1.8081    1.0000 </r>
       <r>    2.2596    1.0000 </r>
       <r>    2.6460    1.0000 </r>
       <r>    2.9622    1.0000 </r>
       <r>    3.3210    1.0000 </r>
       <r>    3.6840    1.0000 </r>
       <r>    3.8133    1.0000 </r>
       <r>    4.5414    1.0000 </r>
       <r>    5.4839    1.0000 </r>
       <r>    7.7547    0.0000 </r>
       <r>    7.8342    0.0000 </r>
       <r>    8.2111    0.0000 </r>
       <r>    8.8399    0.0000 </r>
       <r>    9.3977    0.0000 </r>
       <r>    9.4780    0.0000 </r>
       <r>    9.9151    0.0000 </r>
       <r>   10.1529    0.0000 </r>
      </set>
      <set comment="kpoint 39">
       <r>   -5.0061    1.0000 </r>
       <r>   -3.6657    1.0000 </r>
       <r>   -3.6220    1.0000 </r>
       <r>   -2.7786    1.0000 </r>
       <r>   -0.7784    1.0000 </r>
       <r>    0.2078    1.0000 </r>
       <r>    0.2295    1.0000 </r>
       <r>    1.8075    1.0000 </r>
       <r>    1.9791    1.0000 </r>
       <r>    2.6183    1.0000 </r>
       <r>    2.6210    1.0000 </r>
       <r>    3.8603    1.0000 </r>
       <r>    3.8609    1.0000 </r>
       <r>    4.0210    1.0000 </r>
       <r>    4.0542    1.0000 </r>
       <r>    5.5429    1.0000 </r>
       <r>    7.7868    0.0000 </r>
       <r>    8.4725    0.0000 </r>
       <r>    8.7020    0.0000 </r>
       <r>    8.9666    0.0000 </r>
       <r>    9.6735    0.0000 </r>
       <r>    9.9220    0.0000 </r>
       <r>   10.2080    0.0000 </r>
       <r>   10.3785    0.0000 </r>
      </set>
      <set comment="kpoint 40">
       <r>   -4.6359    1.0000 </r>
       <r>   -4.1708    1.0000 </r>
       <r>   -3.3886    1.0000 </r>
       <r>   -3.0771    1.0000 </r>
       <r>   -0.5312    1.0000 </r>
       <r>   -0.1876    1.0000 </r>
       <r>    0.7760    1.0000 </r>
       <r>    1.3539    1.0000 </r>
       <r>    1.9806    1.0000 </r>
       <r>    2.2725    1.0000 </r>
       <r>    3.0356    1.0000 </r>
       <r>    3.5066    1.0000 </r>
       <r>    3.9836    1.0000 </r>
       <r>    4.1068    1.0000 </r>
       <r>    4.5290    1.0000 </r>
       <r>    5.1638    1.0000 </r>
       <r>    8.3783    0.0000 </r>
       <r>    8.7906    0.0000 </r>
       <r>    9.0039    0.0000 </r>
       <r>    9.3541    0.0000 </r>
       <r>    9.5283    0.0000 </r>
       <r>    9.7979    0.0000 </r>
       <r>    9.8225    0.0000 </r>
       <r>   10.6837    0.0000 </r>
      </set>
      <set comment="kpoint 41">
       <r>   -5.1149    1.0000 </r>
       <r>   -4.6357    1.0000 </r>
       <r>   -2.2283    1.0000 </r>
       <r>   -2.0645    1.0000 </r>
       <r>   -1.1400    1.0000 </r>
       <r>   -1.0138    1.0000 </r>
       <r>    1.8424    1.0000 </r>
       <r>    1.9179    1.0000 </r>
       <r>    1.9896    1.0000 </r>
       <r>    2.5925    1.0000 </r>
       <r>    2.6774    1.0000 </r>
       <r>    2.8334    1.0000 </r>
       <r>    3.8251    1.0000 </r>
       <r>    4.0733    1.0000 </r>
       <r>    4.2466    1.0000 </r>
       <r>    4.5884    1.0000 </r>
       <r>    7.4475    0.0000 </r>
       <r>    7.7859    0.0000 </r>
       <r>    9.0273    0.0000 </r>
       <r>    9.0734    0.0000 </r>
       <r>    9.8440    0.0000 </r>
       <r>   10.0020    0.0000 </r>
       <r>   10.0180    0.0000 </r>
       <r>   10.7080    0.0000 </r>
      </set>
      <set comment="kpoint 42">
       <r>   -5.0624    1.0000 </r>
       <r>   -4.5860    1.0000 </r>
       <r>   -2.3474    1.0000 </r>
       <r>   -2.3247    1.0000 </r>
       <r>   -0.9568    1.0000 </r>
       <r>   -0.9402    1.0000 </r>
       <r>    1.7278    1.0000 </r>
       <r>    1.8843    1.0000 </r>
       <r>    1.8867    1.0000 </r>
       <r>    2.5378    1.0000 </r>
       <r>    2.8678    1.0000 </r>
       <r>    2.9121    1.0000 </r>
       <r>    3.7713    1.0000 </r>
       <r>    4.1021    1.0000 </r>
       <r>    4.3891    1.0000 </r>
       <r>    4.5174    1.0000 </r>
       <r>    7.6252    0.0000 </r>
       <r>    7.9883    0.0000 </r>
       <r>    9.1246    0.0000 </r>
       <r>    9.2794    0.0000 </r>
       <r>    9.3061    0.0000 </r>
       <r>   10.0548    0.0000 </r>
       <r>   10.3616    0.0000 </r>
       <r>   10.4604    0.0000 </r>
      </set>
      <set comment="kpoint 43">
       <r>   -4.9059    1.0000 </r>
       <r>   -4.4386    1.0000 </r>
       <r>   -2.8247    1.0000 </r>
       <r>   -2.6572    1.0000 </r>
       <r>   -0.7917    1.0000 </r>
       <r>   -0.5802    1.0000 </r>
       <r>    1.2867    1.0000 </r>
       <r>    1.8500    1.0000 </r>
       <r>    1.9625    1.0000 </r>
       <r>    2.0230    1.0000 </r>
       <r>    3.3698    1.0000 </r>
       <r>    3.4691    1.0000 </r>
       <r>    3.5285    1.0000 </r>
       <r>    4.0034    1.0000 </r>
       <r>    4.2871    1.0000 </r>
       <r>    4.8891    1.0000 </r>
       <r>    8.1650    0.0000 </r>
       <r>    8.5356    0.0000 </r>
       <r>    8.6447    0.0000 </r>
       <r>    9.2740    0.0000 </r>
       <r>    9.8064    0.0000 </r>
       <r>   10.0350    0.0000 </r>
       <r>   10.0751    0.0000 </r>
       <r>   10.5224    0.0000 </r>
      </set>
      <set comment="kpoint 44">
       <r>   -4.6486    1.0000 </r>
       <r>   -4.1985    1.0000 </r>
       <r>   -3.3594    1.0000 </r>
       <r>   -3.0638    1.0000 </r>
       <r>   -0.5268    1.0000 </r>
       <r>   -0.1787    1.0000 </r>
       <r>    0.7701    1.0000 </r>
       <r>    1.3540    1.0000 </r>
       <r>    1.9774    1.0000 </r>
       <r>    2.2663    1.0000 </r>
       <r>    3.0435    1.0000 </r>
       <r>    3.5131    1.0000 </r>
       <r>    4.0364    1.0000 </r>
       <r>    4.1555    1.0000 </r>
       <r>    4.5027    1.0000 </r>
       <r>    5.1421    1.0000 </r>
       <r>    8.2875    0.0000 </r>
       <r>    9.0136    0.0000 </r>
       <r>    9.2122    0.0000 </r>
       <r>    9.2143    0.0000 </r>
       <r>    9.5281    0.0000 </r>
       <r>    9.5332    0.0000 </r>
       <r>    9.9061    0.0000 </r>
       <r>   10.5486    0.0000 </r>
      </set>
      <set comment="kpoint 45">
       <r>   -4.2967    1.0000 </r>
       <r>   -3.8755    1.0000 </r>
       <r>   -3.8609    1.0000 </r>
       <r>   -3.4872    1.0000 </r>
       <r>   -0.1690    1.0000 </r>
       <r>    0.2704    1.0000 </r>
       <r>    0.2717    1.0000 </r>
       <r>    0.7831    1.0000 </r>
       <r>    2.2438    1.0000 </r>
       <r>    2.6075    1.0000 </r>
       <r>    2.6132    1.0000 </r>
       <r>    3.0316    1.0000 </r>
       <r>    4.5641    1.0000 </r>
       <r>    4.6423    1.0000 </r>
       <r>    4.6851    1.0000 </r>
       <r>    5.0982    1.0000 </r>
       <r>    8.3770    0.0000 </r>
       <r>    8.8737    0.0000 </r>
       <r>    8.9039    0.0000 </r>
       <r>    8.9723    0.0000 </r>
       <r>    9.8371    0.0000 </r>
       <r>   10.0795    0.0000 </r>
       <r>   10.1904    0.0000 </r>
       <r>   10.3859    0.0000 </r>
      </set>
      <set comment="kpoint 46">
       <r>   -5.6010    1.0000 </r>
       <r>   -3.2693    1.0000 </r>
       <r>   -3.2693    1.0000 </r>
       <r>   -2.0472    1.0000 </r>
       <r>   -1.2321    1.0000 </r>
       <r>   -0.0662    1.0000 </r>
       <r>   -0.0662    1.0000 </r>
       <r>    1.8038    1.0000 </r>
       <r>    2.8154    1.0000 </r>
       <r>    2.8154    1.0000 </r>
       <r>    3.2095    1.0000 </r>
       <r>    3.2095    1.0000 </r>
       <r>    3.4411    1.0000 </r>
       <r>    3.7988    1.0000 </r>
       <r>    4.7877    1.0000 </r>
       <r>    5.8302    1.0000 </r>
       <r>    7.0695    0.0000 </r>
       <r>    7.8369    0.0000 </r>
       <r>    7.8369    0.0000 </r>
       <r>    8.4478    0.0000 </r>
       <r>    8.4478    0.0000 </r>
       <r>    9.1706    0.0000 </r>
       <r>    9.1770    0.0000 </r>
       <r>    9.4703    0.0000 </r>
      </set>
      <set comment="kpoint 47">
       <r>   -5.5462    1.0000 </r>
       <r>   -3.2391    1.0000 </r>
       <r>   -3.2391    1.0000 </r>
       <r>   -2.4557    1.0000 </r>
       <r>   -0.8551    1.0000 </r>
       <r>   -0.1406    1.0000 </r>
       <r>   -0.1406    1.0000 </r>
       <r>    1.9576    1.0000 </r>
       <r>    2.5690    1.0000 </r>
       <r>    2.5690    1.0000 </r>
       <r>    3.3612    1.0000 </r>
       <r>    3.4885    1.0000 </r>
       <r>    3.5071    1.0000 </r>
       <r>    3.5071    1.0000 </r>
       <r>    5.1609    1.0000 </r>
       <r>    5.7019    1.0000 </r>
       <r>    7.1382    0.0000 </r>
       <r>    7.5336    0.0000 </r>
       <r>    7.5336    0.0000 </r>
       <r>    8.7345    0.0000 </r>
       <r>    9.0543    0.0000 </r>
       <r>    9.0543    0.0000 </r>
       <r>    9.2884    0.0000 </r>
       <r>    9.6405    0.0000 </r>
      </set>
      <set comment="kpoint 48">
       <r>   -5.3824    1.0000 </r>
       <r>   -3.1571    1.0000 </r>
       <r>   -3.1571    1.0000 </r>
       <r>   -3.0941    1.0000 </r>
       <r>   -0.3397    1.0000 </r>
       <r>   -0.3397    1.0000 </r>
       <r>   -0.2989    1.0000 </r>
       <r>    2.3552    1.0000 </r>
       <r>    2.3552    1.0000 </r>
       <r>    2.4011    1.0000 </r>
       <r>    2.6625    1.0000 </r>
       <r>    3.6294    1.0000 </r>
       <r>    3.7843    1.0000 </r>
       <r>    3.7843    1.0000 </r>
       <r>    5.3776    1.0000 </r>
       <r>    5.5191    1.0000 </r>
       <r>    7.3399    0.0000 </r>
       <r>    7.4950    0.0000 </r>
       <r>    7.4950    0.0000 </r>
       <r>    8.3512    0.0000 </r>
       <r>    9.5799    0.0000 </r>
       <r>    9.6189    0.0000 </r>
       <r>    9.8334    0.0000 </r>
       <r>   10.0658    0.0000 </r>
      </set>
      <set comment="kpoint 49">
       <r>   -5.1119    1.0000 </r>
       <r>   -3.7141    1.0000 </r>
       <r>   -3.0511    1.0000 </r>
       <r>   -3.0511    1.0000 </r>
       <r>   -0.5820    1.0000 </r>
       <r>   -0.5820    1.0000 </r>
       <r>    0.2355    1.0000 </r>
       <r>    1.9773    1.0000 </r>
       <r>    2.2944    1.0000 </r>
       <r>    2.2944    1.0000 </r>
       <r>    3.0690    1.0000 </r>
       <r>    3.8105    1.0000 </r>
       <r>    3.8105    1.0000 </r>
       <r>    3.8596    1.0000 </r>
       <r>    4.9661    1.0000 </r>
       <r>    5.3122    1.0000 </r>
       <r>    7.6565    0.0000 </r>
       <r>    8.0051    0.0000 </r>
       <r>    8.0051    0.0000 </r>
       <r>    8.4210    0.0000 </r>
       <r>    9.4856    0.0000 </r>
       <r>    9.9887    0.0000 </r>
       <r>   10.2036    0.0000 </r>
       <r>   11.0876    0.0000 </r>
      </set>
      <set comment="kpoint 50">
       <r>   -4.7384    1.0000 </r>
       <r>   -4.2688    1.0000 </r>
       <r>   -2.9719    1.0000 </r>
       <r>   -2.9719    1.0000 </r>
       <r>   -0.7495    1.0000 </r>
       <r>   -0.7495    1.0000 </r>
       <r>    0.7718    1.0000 </r>
       <r>    1.3463    1.0000 </r>
       <r>    2.3095    1.0000 </r>
       <r>    2.3095    1.0000 </r>
       <r>    3.7313    1.0000 </r>
       <r>    3.7313    1.0000 </r>
       <r>    3.8594    1.0000 </r>
       <r>    4.1708    1.0000 </r>
       <r>    4.5483    1.0000 </r>
       <r>    4.6600    1.0000 </r>
       <r>    8.0456    0.0000 </r>
       <r>    8.3971    0.0000 </r>
       <r>    8.9292    0.0000 </r>
       <r>    8.9292    0.0000 </r>
       <r>    9.8108    0.0000 </r>
       <r>   10.1093    0.0000 </r>
       <r>   10.1093    0.0000 </r>
       <r>   10.4896    0.0000 </r>
      </set>
      <set comment="kpoint 51">
       <r>   -5.3333    1.0000 </r>
       <r>   -3.9232    1.0000 </r>
       <r>   -3.0811    1.0000 </r>
       <r>   -2.2930    1.0000 </r>
       <r>   -0.9840    1.0000 </r>
       <r>   -0.2243    1.0000 </r>
       <r>    0.7666    1.0000 </r>
       <r>    1.6581    1.0000 </r>
       <r>    2.3476    1.0000 </r>
       <r>    3.0263    1.0000 </r>
       <r>    3.0685    1.0000 </r>
       <r>    3.1213    1.0000 </r>
       <r>    3.4629    1.0000 </r>
       <r>    3.6558    1.0000 </r>
       <r>    4.2514    1.0000 </r>
       <r>    5.4800    1.0000 </r>
       <r>    7.5435    0.0000 </r>
       <r>    7.9880    0.0000 </r>
       <r>    8.8840    0.0000 </r>
       <r>    8.9271    0.0000 </r>
       <r>    8.9528    0.0000 </r>
       <r>    9.3974    0.0000 </r>
       <r>    9.4406    0.0000 </r>
       <r>   10.2876    0.0000 </r>
      </set>
      <set comment="kpoint 52">
       <r>   -5.2800    1.0000 </r>
       <r>   -3.8825    1.0000 </r>
       <r>   -3.0695    1.0000 </r>
       <r>   -2.5202    1.0000 </r>
       <r>   -0.8444    1.0000 </r>
       <r>   -0.3315    1.0000 </r>
       <r>    0.6067    1.0000 </r>
       <r>    1.8583    1.0000 </r>
       <r>    2.2997    1.0000 </r>
       <r>    2.6626    1.0000 </r>
       <r>    2.9996    1.0000 </r>
       <r>    3.3698    1.0000 </r>
       <r>    3.5197    1.0000 </r>
       <r>    3.7984    1.0000 </r>
       <r>    4.6405    1.0000 </r>
       <r>    5.3757    1.0000 </r>
       <r>    7.6090    0.0000 </r>
       <r>    7.7950    0.0000 </r>
       <r>    8.3623    0.0000 </r>
       <r>    8.8014    0.0000 </r>
       <r>    9.3588    0.0000 </r>
       <r>    9.4491    0.0000 </r>
       <r>   10.0949    0.0000 </r>
       <r>   10.2292    0.0000 </r>
      </set>
      <set comment="kpoint 53">
       <r>   -5.1210    1.0000 </r>
       <r>   -3.7647    1.0000 </r>
       <r>   -3.0512    1.0000 </r>
       <r>   -3.0058    1.0000 </r>
       <r>   -0.5663    1.0000 </r>
       <r>   -0.5562    1.0000 </r>
       <r>    0.2287    1.0000 </r>
       <r>    1.9884    1.0000 </r>
       <r>    2.3099    1.0000 </r>
       <r>    2.3797    1.0000 </r>
       <r>    2.9828    1.0000 </r>
       <r>    3.6947    1.0000 </r>
       <r>    3.8334    1.0000 </r>
       <r>    4.0070    1.0000 </r>
       <r>    5.0536    1.0000 </r>
       <r>    5.2263    1.0000 </r>
       <r>    7.7952    0.0000 </r>
       <r>    7.8008    0.0000 </r>
       <r>    7.9368    0.0000 </r>
       <r>    8.4804    0.0000 </r>
       <r>    9.3854    0.0000 </r>
       <r>   10.0570    0.0000 </r>
       <r>   10.3999    0.0000 </r>
       <r>   10.8609    0.0000 </r>
      </set>
      <set comment="kpoint 54">
       <r>   -4.8596    1.0000 </r>
       <r>   -3.5847    1.0000 </r>
       <r>   -3.5463    1.0000 </r>
       <r>   -3.0733    1.0000 </r>
       <r>   -0.7548    1.0000 </r>
       <r>   -0.2010    1.0000 </r>
       <r>   -0.1998    1.0000 </r>
       <r>    1.3294    1.0000 </r>
       <r>    2.4370    1.0000 </r>
       <r>    2.9535    1.0000 </r>
       <r>    3.0503    1.0000 </r>
       <r>    4.0076    1.0000 </r>
       <r>    4.1047    1.0000 </r>
       <r>    4.1707    1.0000 </r>
       <r>    4.6758    1.0000 </r>
       <r>    5.3896    1.0000 </r>
       <r>    7.9606    0.0000 </r>
       <r>    8.0971    0.0000 </r>
       <r>    8.2813    0.0000 </r>
       <r>    8.3548    0.0000 </r>
       <r>    9.6112    0.0000 </r>
       <r>    9.8163    0.0000 </r>
       <r>   10.4314    0.0000 </r>
       <r>   10.5506    0.0000 </r>
      </set>
      <set comment="kpoint 55">
       <r>   -4.5015    1.0000 </r>
       <r>   -4.0573    1.0000 </r>
       <r>   -3.3734    1.0000 </r>
       <r>   -3.1836    1.0000 </r>
       <r>   -0.7621    1.0000 </r>
       <r>   -0.5588    1.0000 </r>
       <r>    0.2271    1.0000 </r>
       <r>    0.7375    1.0000 </r>
       <r>    2.6358    1.0000 </r>
       <r>    2.8346    1.0000 </r>
       <r>    3.6887    1.0000 </r>
       <r>    4.1733    1.0000 </r>
       <r>    4.2160    1.0000 </r>
       <r>    4.2436    1.0000 </r>
       <r>    4.4894    1.0000 </r>
       <r>    5.0529    1.0000 </r>
       <r>    8.4237    0.0000 </r>
       <r>    8.5161    0.0000 </r>
       <r>    8.5220    0.0000 </r>
       <r>    9.1604    0.0000 </r>
       <r>    9.4520    0.0000 </r>
       <r>    9.5464    0.0000 </r>
       <r>    9.8192    0.0000 </r>
       <r>   10.1554    0.0000 </r>
      </set>
      <set comment="kpoint 56">
       <r>   -4.9617    1.0000 </r>
       <r>   -4.4899    1.0000 </r>
       <r>   -2.8387    1.0000 </r>
       <r>   -2.5659    1.0000 </r>
       <r>   -0.7153    1.0000 </r>
       <r>   -0.4504    1.0000 </r>
       <r>    1.5648    1.0000 </r>
       <r>    1.7189    1.0000 </r>
       <r>    1.9624    1.0000 </r>
       <r>    2.3275    1.0000 </r>
       <r>    3.1627    1.0000 </r>
       <r>    3.3105    1.0000 </r>
       <r>    3.3441    1.0000 </r>
       <r>    3.7582    1.0000 </r>
       <r>    4.2302    1.0000 </r>
       <r>    4.8772    1.0000 </r>
       <r>    8.2359    0.0000 </r>
       <r>    8.4455    0.0000 </r>
       <r>    8.5604    0.0000 </r>
       <r>    9.5557    0.0000 </r>
       <r>    9.6055    0.0000 </r>
       <r>    9.9723    0.0000 </r>
       <r>   10.0780    0.0000 </r>
       <r>   10.4681    0.0000 </r>
      </set>
      <set comment="kpoint 57">
       <r>   -4.9108    1.0000 </r>
       <r>   -4.4430    1.0000 </r>
       <r>   -2.8645    1.0000 </r>
       <r>   -2.6646    1.0000 </r>
       <r>   -0.7433    1.0000 </r>
       <r>   -0.5543    1.0000 </r>
[...]
       <r>   -3.8935    1.0000 </r>
       <r>   -3.5105    1.0000 </r>
       <r>   -0.1013    1.0000 </r>
       <r>    0.3291    1.0000 </r>
       <r>    0.3291    1.0000 </r>
       <r>    0.8357    1.0000 </r>
       <r>    2.3661    1.0000 </r>
       <r>    2.7308    1.0000 </r>
       <r>    2.7308    1.0000 </r>
       <r>    3.1545    1.0000 </r>
       <r>    4.4018    1.0000 </r>
       <r>    4.5195    1.0000 </r>
       <r>    4.5195    1.0000 </r>
       <r>    4.9437    1.0000 </r>
       <r>    8.1924    0.0000 </r>
       <r>    8.7288    0.0000 </r>
       <r>    8.7288    0.0000 </r>
       <r>    8.7290    0.0000 </r>
       <r>    9.9876    0.0000 </r>
       <r>    9.9876    0.0000 </r>
       <r>   10.2378    0.0000 </r>
       <r>   10.4604    0.0000 </r>
      </set>
      <set comment="kpoint 73">
       <r>   -4.1985    1.0000 </r>
       <r>   -3.8076    1.0000 </r>
       <r>   -3.8076    1.0000 </r>
       <r>   -3.4882    1.0000 </r>
       <r>   -0.5453    1.0000 </r>
       <r>   -0.2015    1.0000 </r>
       <r>   -0.2015    1.0000 </r>
       <r>    0.2352    1.0000 </r>
       <r>    3.1233    1.0000 </r>
       <r>    3.4590    1.0000 </r>
       <r>    3.4590    1.0000 </r>
       <r>    3.9189    1.0000 </r>
       <r>    4.4799    1.0000 </r>
       <r>    4.5801    1.0000 </r>
       <r>    4.5801    1.0000 </r>
       <r>    4.9356    1.0000 </r>
       <r>    8.2917    0.0000 </r>
       <r>    8.5263    0.0000 </r>
       <r>    8.6949    0.0000 </r>
       <r>    8.6949    0.0000 </r>
       <r>    9.4516    0.0000 </r>
       <r>    9.4516    0.0000 </r>
       <r>    9.8009    0.0000 </r>
       <r>    9.8876    0.0000 </r>
      </set>
      <set comment="kpoint 74">
       <r>   -4.0142    1.0000 </r>
       <r>   -3.6963    1.0000 </r>
       <r>   -3.6963    1.0000 </r>
       <r>   -3.5042    1.0000 </r>
       <r>   -0.8639    1.0000 </r>
       <r>   -0.6621    1.0000 </r>
       <r>   -0.6621    1.0000 </r>
       <r>   -0.3184    1.0000 </r>
       <r>    3.9684    1.0000 </r>
       <r>    4.1791    1.0000 </r>
       <r>    4.1791    1.0000 </r>
       <r>    4.5939    1.0000 </r>
       <r>    4.6552    1.0000 </r>
       <r>    4.6791    1.0000 </r>
       <r>    4.6791    1.0000 </r>
       <r>    4.9027    1.0000 </r>
       <r>    8.0745    0.0000 </r>
       <r>    8.3026    0.0000 </r>
       <r>    8.3850    0.0000 </r>
       <r>    8.3850    0.0000 </r>
       <r>    9.3058    0.0000 </r>
       <r>    9.3058    0.0000 </r>
       <r>    9.4936    0.0000 </r>
       <r>    9.6648    0.0000 </r>
      </set>
      <set comment="kpoint 75">
       <r>   -3.7993    1.0000 </r>
       <r>   -3.6131    1.0000 </r>
       <r>   -3.6131    1.0000 </r>
       <r>   -3.6096    1.0000 </r>
       <r>   -0.9315    1.0000 </r>
       <r>   -0.9293    1.0000 </r>
       <r>   -0.9293    1.0000 </r>
       <r>   -0.7309    1.0000 </r>
       <r>    4.5421    1.0000 </r>
       <r>    4.5421    1.0000 </r>
       <r>    4.7084    1.0000 </r>
       <r>    4.7202    1.0000 </r>
       <r>    4.8302    1.0000 </r>
       <r>    4.8853    1.0000 </r>
       <r>    4.8853    1.0000 </r>
       <r>    5.0220    1.0000 </r>
       <r>    7.7793    0.0000 </r>
       <r>    8.0013    0.0000 </r>
       <r>    8.0443    0.0000 </r>
       <r>    8.0443    0.0000 </r>
       <r>    9.3376    0.0000 </r>
       <r>    9.3376    0.0000 </r>
       <r>    9.4001    0.0000 </r>
       <r>    9.5070    0.0000 </r>
      </set>
     </set>
    </set>
   </array>
  </eigenvalues>
  <separator name="orbital magnetization" >
   <v name="MAGDIPOLOUT">      0.00000000      0.00000000      0.00000000</v>
  </separator>
  <dos>
   <i name="efermi">      6.29790678 </i>
   <total>
    <array>
     <dimension dim="1">gridpoints</dimension>
     <dimension dim="2">spin</dimension>
     <field>energy</field>
     <field>total</field>
     <field>integrated</field>
     <set>
      <set comment="spin 1">
       <r>    -7.0352     0.0000     0.0000 </r>
       <r>    -6.9715     0.0000     0.0000 </r>
       <r>    -6.9077     0.0000     0.0000 </r>
       <r>    -6.8440     0.0000     0.0000 </r>
       <r>    -6.7803     0.0000     0.0000 </r>
       <r>    -6.7165     0.0000     0.0000 </r>
       <r>    -6.6528     0.0000     0.0000 </r>
       <r>    -6.5890     0.0000     0.0000 </r>
       <r>    -6.5253     0.0000     0.0000 </r>
       <r>    -6.4615     0.0000     0.0000 </r>
       <r>    -6.3978     0.0000     0.0000 </r>
       <r>    -6.3341     0.0000     0.0000 </r>
       <r>    -6.2703     0.0002     0.0000 </r>
       <r>    -6.2066     0.0011     0.0001 </r>
       <r>    -6.1428    -0.0016     0.0000 </r>
       <r>    -6.0791    -0.0107    -0.0007 </r>
       <r>    -6.0153     0.0544     0.0028 </r>
       <r>    -5.9516     0.3084     0.0224 </r>
       <r>    -5.8879     0.4752     0.0527 </r>
       <r>    -5.8241     0.3925     0.0777 </r>
       <r>    -5.7604     0.7508     0.1256 </r>
       <r>    -5.6966     1.0648     0.1935 </r>
       <r>    -5.6329     0.5128     0.2262 </r>
       <r>    -5.5691     0.5836     0.2634 </r>
       <r>    -5.5054     1.2577     0.3435 </r>
       <r>    -5.4417     1.2716     0.4246 </r>
       <r>    -5.3779     0.8478     0.4786 </r>
       <r>    -5.3142     1.1322     0.5508 </r>
       <r>    -5.2504     1.5913     0.6522 </r>
       <r>    -5.1867     0.6487     0.6936 </r>
       <r>    -5.1229     0.8975     0.7508 </r>
       <r>    -5.0592     1.9630     0.8759 </r>
       <r>    -4.9955     1.6393     0.9804 </r>
       <r>    -4.9317     1.5180     1.0772 </r>
       <r>    -4.8680     1.9777     1.2032 </r>
       <r>    -4.8042     1.0466     1.2699 </r>
       <r>    -4.7405     0.5683     1.3062 </r>
       <r>    -4.6767     1.7131     1.4154 </r>
       <r>    -4.6130     2.5419     1.5774 </r>
       <r>    -4.5493     1.9437     1.7013 </r>
       <r>    -4.4855     2.0871     1.8343 </r>
       <r>    -4.4218     2.0308     1.9638 </r>
       <r>    -4.3580     1.2421     2.0430 </r>
       <r>    -4.2943     1.8096     2.1583 </r>
       <r>    -4.2305     2.5386     2.3201 </r>
       <r>    -4.1668     2.2769     2.4653 </r>
       <r>    -4.1031     1.5900     2.5666 </r>
       <r>    -4.0393     2.0382     2.6965 </r>
       <r>    -3.9756     1.9473     2.8207 </r>
       <r>    -3.9118     2.5798     2.9851 </r>
       <r>    -3.8481     4.0471     3.2431 </r>
       <r>    -3.7843     2.9956     3.4340 </r>
       <r>    -3.7206     2.2196     3.5755 </r>
       <r>    -3.6569     3.0840     3.7721 </r>
       <r>    -3.5931     2.8641     3.9546 </r>
       <r>    -3.5294     2.2600     4.0987 </r>
       <r>    -3.4656     2.7928     4.2767 </r>
       <r>    -3.4019     4.2650     4.5486 </r>
       <r>    -3.3381     4.8989     4.8609 </r>
       <r>    -3.2744     2.2925     5.0070 </r>
       <r>    -3.2107     1.8253     5.1233 </r>
       <r>    -3.1469     2.5165     5.2837 </r>
       <r>    -3.0832     3.7713     5.5241 </r>
       <r>    -3.0194     5.2219     5.8570 </r>
       <r>    -2.9557     3.0130     6.0491 </r>
       <r>    -2.8919     1.1550     6.1227 </r>
       <r>    -2.8282     1.6440     6.2275 </r>
       <r>    -2.7645     1.5797     6.3282 </r>
       <r>    -2.7007     1.0545     6.3954 </r>
       <r>    -2.6370     1.8738     6.5148 </r>
       <r>    -2.5732     2.8661     6.6975 </r>
       <r>    -2.5095     3.9486     6.9492 </r>
       <r>    -2.4457     2.9405     7.1367 </r>
       <r>    -2.3820     2.3785     7.2883 </r>
       <r>    -2.3183     2.5167     7.4487 </r>
       <r>    -2.2545     1.5272     7.5460 </r>
       <r>    -2.1908     0.5353     7.5802 </r>
       <r>    -2.1270     0.3863     7.6048 </r>
       <r>    -2.0633     0.7909     7.6552 </r>
       <r>    -1.9995     0.8089     7.7068 </r>
       <r>    -1.9358     0.7938     7.7574 </r>
       <r>    -1.8721     0.8972     7.8145 </r>
       <r>    -1.8083     0.9054     7.8723 </r>
       <r>    -1.7446     1.0120     7.9368 </r>
       <r>    -1.6808     1.2456     8.0162 </r>
       <r>    -1.6171     1.5245     8.1133 </r>
       <r>    -1.5533     1.2762     8.1947 </r>
       <r>    -1.4896     0.4280     8.2220 </r>
       <r>    -1.4259     0.2782     8.2397 </r>
       <r>    -1.3621     0.6363     8.2803 </r>
       <r>    -1.2984     0.5231     8.3136 </r>
       <r>    -1.2346     0.4304     8.3410 </r>
       <r>    -1.1709     0.5658     8.3771 </r>
       <r>    -1.1071     0.5598     8.4128 </r>
       <r>    -1.0434     0.5579     8.4484 </r>
       <r>    -0.9797     2.3571     8.5986 </r>
       <r>    -0.9159     6.3398     9.0027 </r>
       <r>    -0.8522     6.3282     9.4061 </r>
       <r>    -0.7884     5.6412     9.7657 </r>
       <r>    -0.7247     6.1494    10.1577 </r>
       <r>    -0.6609     3.6206    10.3885 </r>
       <r>    -0.5972     3.0693    10.5841 </r>
       <r>    -0.5335     5.3696    10.9264 </r>
       <r>    -0.4697     3.2535    11.1338 </r>
       <r>    -0.4060     0.7906    11.1842 </r>
       <r>    -0.3422     1.9734    11.3099 </r>
       <r>    -0.2785     3.2008    11.5140 </r>
       <r>    -0.2147     3.7852    11.7553 </r>
       <r>    -0.1510     4.4477    12.0388 </r>
       <r>    -0.0873     2.7022    12.2110 </r>
       <r>    -0.0235     1.4448    12.3031 </r>
       <r>     0.0402     1.5855    12.4042 </r>
       <r>     0.1040     1.1647    12.4784 </r>
       <r>     0.1677     1.4484    12.5707 </r>
       <r>     0.2315     3.8946    12.8190 </r>
       <r>     0.2952     3.9322    13.0696 </r>
       <r>     0.3589     1.0962    13.1395 </r>
       <r>     0.4227     0.2895    13.1580 </r>
       <r>     0.4864     0.4418    13.1861 </r>
       <r>     0.5502     0.6042    13.2246 </r>
       <r>     0.6139     1.3718    13.3121 </r>
       <r>     0.6777     1.1163    13.3832 </r>
       <r>     0.7414     2.1002    13.5171 </r>
       <r>     0.8051     3.9437    13.7685 </r>
       <r>     0.8689     2.1820    13.9076 </r>
       <r>     0.9326     0.4708    13.9376 </r>
       <r>     0.9964     0.5510    13.9727 </r>
       <r>     1.0601     0.7968    14.0235 </r>
       <r>     1.1239     1.0071    14.0877 </r>
       <r>     1.1876     0.4389    14.1157 </r>
       <r>     1.2513     0.1495    14.1252 </r>
       <r>     1.3151     1.9223    14.2477 </r>
       <r>     1.3788     3.1662    14.4496 </r>
       <r>     1.4426     1.2414    14.5287 </r>
       <r>     1.5063    -0.0118    14.5279 </r>
       <r>     1.5701     0.6606    14.5700 </r>
       <r>     1.6338     1.4418    14.6619 </r>
       <r>     1.6975     1.7830    14.7756 </r>
       <r>     1.7613     1.9691    14.9011 </r>
       <r>     1.8250     3.4973    15.1240 </r>
       <r>     1.8888     5.1046    15.4494 </r>
       <r>     1.9525     6.3533    15.8544 </r>
       <r>     2.0163     7.2322    16.3154 </r>
       <r>     2.0800     3.8089    16.5582 </r>
       <r>     2.1437     0.9465    16.6185 </r>
       <r>     2.2075     1.8773    16.7382 </r>
       <r>     2.2712     5.1714    17.0678 </r>
       <r>     2.3350     6.8894    17.5070 </r>
       <r>     2.3987     5.2350    17.8407 </r>
       <r>     2.4625     2.0528    17.9715 </r>
       <r>     2.5262     1.1210    18.0430 </r>
       <r>     2.5899     3.8471    18.2882 </r>
       <r>     2.6537     6.8001    18.7217 </r>
       <r>     2.7174     5.9740    19.1025 </r>
       <r>     2.7812     3.1597    19.3039 </r>
       <r>     2.8449     2.5519    19.4665 </r>
       <r>     2.9087     4.0068    19.7220 </r>
       <r>     2.9724     5.3803    20.0649 </r>
       <r>     3.0361     5.8556    20.4382 </r>
       <r>     3.0999     5.4979    20.7886 </r>
       <r>     3.1636     4.8213    21.0959 </r>
       <r>     3.2274     4.1067    21.3577 </r>
       <r>     3.2911     4.9562    21.6736 </r>
       <r>     3.3549     7.5936    22.1577 </r>
       <r>     3.4186     6.8648    22.5953 </r>
       <r>     3.4823     5.5348    22.9481 </r>
       <r>     3.5461     5.3350    23.2881 </r>
       <r>     3.6098     3.6089    23.5182 </r>
       <r>     3.6736     5.2899    23.8554 </r>
       <r>     3.7373     7.0045    24.3018 </r>
       <r>     3.8011     7.0706    24.7525 </r>
       <r>     3.8648     5.4971    25.1029 </r>
       <r>     3.9285     2.6629    25.2727 </r>
       <r>     3.9923     3.5329    25.4979 </r>
       <r>     4.0560     6.3874    25.9050 </r>
       <r>     4.1198     7.1970    26.3638 </r>
       <r>     4.1835     6.3511    26.7686 </r>
       <r>     4.2473     4.9850    27.0864 </r>
       <r>     4.3110     3.4881    27.3087 </r>
       <r>     4.3747     2.5808    27.4732 </r>
       <r>     4.4385     3.0895    27.6702 </r>
       <r>     4.5022     5.6959    28.0332 </r>
       <r>     4.5660     7.1552    28.4893 </r>
       <r>     4.6297     5.1056    28.8148 </r>
       <r>     4.6935     5.1523    29.1432 </r>
       <r>     4.7572     4.7980    29.4490 </r>
       <r>     4.8209     2.8264    29.6292 </r>
       <r>     4.8847     2.6331    29.7970 </r>
       <r>     4.9484     3.5287    30.0220 </r>
       <r>     5.0122     3.2488    30.2291 </r>
       <r>     5.0759     3.9090    30.4782 </r>
       <r>     5.1397     3.9606    30.7307 </r>
       <r>     5.2034     3.0781    30.9269 </r>
       <r>     5.2671     2.0180    31.0555 </r>
       <r>     5.3309     1.0615    31.1232 </r>
       <r>     5.3946     1.4858    31.2179 </r>
       <r>     5.4584     2.0616    31.3493 </r>
       <r>     5.5221     2.0313    31.4788 </r>
       <r>     5.5859     1.3659    31.5659 </r>
       <r>     5.6496     0.9168    31.6243 </r>
       <r>     5.7133     0.9872    31.6872 </r>
       <r>     5.7771     1.2136    31.7646 </r>
       <r>     5.8408     1.4095    31.8544 </r>
       <r>     5.9046     0.9039    31.9120 </r>
       <r>     5.9683     0.5004    31.9439 </r>
       <r>     6.0321     0.3377    31.9655 </r>
       <r>     6.0958     0.2651    31.9824 </r>
       <r>     6.1595     0.2194    31.9964 </r>
       <r>     6.2233     0.0512    31.9996 </r>
       <r>     6.2870     0.0052    32.0000 </r>
       <r>     6.3508     0.0017    32.0001 </r>
       <r>     6.4145    -0.0064    31.9996 </r>
       <r>     6.4783     0.0083    32.0002 </r>
       <r>     6.5420     0.0845    32.0056 </r>
       <r>     6.6057     0.0720    32.0102 </r>
       <r>     6.6695     0.0904    32.0159 </r>
       <r>     6.7332     0.2726    32.0333 </r>
       <r>     6.7970     0.4843    32.0642 </r>
       <r>     6.8607     0.7347    32.1110 </r>
       <r>     6.9245     0.8409    32.1646 </r>
       <r>     6.9882     1.2627    32.2451 </r>
       <r>     7.0519     1.4595    32.3381 </r>
       <r>     7.1157     1.6397    32.4426 </r>
       <r>     7.1794     1.8716    32.5619 </r>
       <r>     7.2432     1.5699    32.6620 </r>
       <r>     7.3069     1.5715    32.7622 </r>
       <r>     7.3707     2.3618    32.9127 </r>
       <r>     7.4344     2.2591    33.0567 </r>
       <r>     7.4981     1.5600    33.1562 </r>
       <r>     7.5619     1.6725    33.2628 </r>
       <r>     7.6256     2.6027    33.4287 </r>
       <r>     7.6894     2.3478    33.5783 </r>
       <r>     7.7531     2.5887    33.7433 </r>
       <r>     7.8169     4.9912    34.0615 </r>
       <r>     7.8806     3.7891    34.3030 </r>
       <r>     7.9443     2.1906    34.4427 </r>
       <r>     8.0081     3.4954    34.6655 </r>
       <r>     8.0718     4.1233    34.9283 </r>
       <r>     8.1356     4.1175    35.1908 </r>
       <r>     8.1993     4.9932    35.5090 </r>
       <r>     8.2631     4.8655    35.8192 </r>
       <r>     8.3268     4.9693    36.1359 </r>
       <r>     8.3905     5.8810    36.5108 </r>
       <r>     8.4543     6.1406    36.9022 </r>
       <r>     8.5180     6.3631    37.3078 </r>
       <r>     8.5818     5.6997    37.6711 </r>
       <r>     8.6455     5.2118    38.0034 </r>
       <r>     8.7093     5.8344    38.3753 </r>
       <r>     8.7730     5.5148    38.7268 </r>
       <r>     8.8367     4.8991    39.0391 </r>
       <r>     8.9005     5.3732    39.3816 </r>
       <r>     8.9642     5.8014    39.7514 </r>
       <r>     9.0280     5.4113    40.0963 </r>
       <r>     9.0917     4.5924    40.3890 </r>
       <r>     9.1555     3.1660    40.5908 </r>
       <r>     9.2192     2.8286    40.7711 </r>
       <r>     9.2829     4.4043    41.0519 </r>
       <r>     9.3467     6.6384    41.4750 </r>
       <r>     9.4104     7.7954    41.9719 </r>
       <r>     9.4742     7.6673    42.4607 </r>
       <r>     9.5379     7.3329    42.9281 </r>
       <r>     9.6017     6.0306    43.3125 </r>
       <r>     9.6654     5.5823    43.6683 </r>
       <r>     9.7291     4.6363    43.9639 </r>
       <r>     9.7929     4.3876    44.2435 </r>
       <r>     9.8566     6.0048    44.6263 </r>
       <r>     9.9204     6.0945    45.0148 </r>
       <r>     9.9841     5.5999    45.3717 </r>
       <r>    10.0479     6.0650    45.7583 </r>
       <r>    10.1116     5.3056    46.0965 </r>
       <r>    10.1753     4.9433    46.4116 </r>
       <r>    10.2391     5.0344    46.7325 </r>
       <r>    10.3028     2.3542    46.8826 </r>
       <r>    10.3666     1.3066    46.9659 </r>
       <r>    10.4303     2.8416    47.1470 </r>
       <r>    10.4941     3.5146    47.3711 </r>
       <r>    10.5578     2.7503    47.5464 </r>
       <r>    10.6215     1.1181    47.6176 </r>
       <r>    10.6853     1.2328    47.6962 </r>
       <r>    10.7490     1.9458    47.8202 </r>
       <r>    10.8128     1.0443    47.8868 </r>
       <r>    10.8765     0.6417    47.9277 </r>
       <r>    10.9403     0.3609    47.9507 </r>
       <r>    11.0040     0.2038    47.9637 </r>
       <r>    11.0677     0.3147    47.9838 </r>
       <r>    11.1315     0.2331    47.9986 </r>
       <r>    11.1952     0.0364    48.0009 </r>
       <r>    11.2590    -0.0159    47.9999 </r>
       <r>    11.3227    -0.0001    47.9999 </r>
       <r>    11.3865     0.0010    48.0000 </r>
       <r>    11.4502     0.0001    48.0000 </r>
       <r>    11.5139     0.0000    48.0000 </r>
       <r>    11.5777     0.0000    48.0000 </r>
       <r>    11.6414     0.0000    48.0000 </r>
       <r>    11.7052     0.0000    48.0000 </r>
       <r>    11.7689     0.0000    48.0000 </r>
       <r>    11.8327     0.0000    48.0000 </r>
       <r>    11.8964     0.0000    48.0000 </r>
       <r>    11.9601     0.0000    48.0000 </r>
       <r>    12.0239     0.0000    48.0000 </r>
       <r>    12.0876     0.0000    48.0000 </r>
      </set>
     </set>
    </array>
   </total>
  </dos>
 </calculation>
 <structure name="finalpos" >
  <crystal>
   <varray name="basis" >
    <v>       5.30608604       0.00000000       0.00000000 </v>
    <v>       0.00000000       5.41437351       0.00000000 </v>
    <v>       0.00000000       0.00000000       5.41437351 </v>
   </varray>
   <i name="volume">    155.55024949 </i>
   <varray name="rec_basis" >
    <v>       0.18846283       0.00000000       0.00000000 </v>
    <v>       0.00000000       0.18469358       0.00000000 </v>
    <v>       0.00000000       0.00000000       0.18469358 </v>
   </varray>
  </crystal>
  <varray name="positions" >
   <v>       0.00000000       0.00000000       0.00000000 </v>
   <v>       0.25000000       0.25000000       0.25000000 </v>
   <v>       0.50000000       0.50000000       0.00000000 </v>
   <v>       0.75000000       0.75000000       0.25000000 </v>
   <v>       0.50000000       0.00000000       0.50000000 </v>
   <v>       0.75000000       0.25000000       0.75000000 </v>
   <v>       0.00000000       0.50000000       0.50000000 </v>
   <v>       0.25000000       0.75000000       0.75000000 </v>
  </varray>
 </structure>
</modeling>
