<?xml version="1.0" encoding="ISO-8859-1"?>
<modeling>
 <generator>
  <i name="program" type="string">vasp </i>
  <i name="version" type="string">5.4.1  </i>
  <i name="subversion" type="string">24Jun15 (build Jul  8 2015 13:29:37) complex                          parallel </i>
  <i name="platform" type="string">FX10FRT </i>
  <i name="date" type="string">2016 02 29 </i>
  <i name="time" type="string">21:53:42 </i>
 </generator>
 <incar>
  <i type="string" name="PREC">accurate</i>
  <i type="string" name="ALGO"> Normal</i>
  <i type="int" name="ISPIN">     1</i>
  <i type="int" name="IBRION">    -1</i>
  <i name="EDIFF">      0.00010000</i>
  <i type="int" name="NSW">     0</i>
  <i type="int" name="ISIF">     2</i>
  <i name="ENCUT">    400.00000000</i>
  <i type="int" name="ISMEAR">     2</i>
  <i name="SIGMA">      0.01000000</i>
  <i type="int" name="NWRITE">     1</i>
  <v type="int" name="KPOINT_BSE">    -1     0     0     0</v>
 </incar>
 <kpoints>
  <generation param="Monkhorst-Pack">
   <v type="int" name="divisions">       8        8        8 </v>
   <v name="usershift">      0.00000000       0.00000000       0.00000000 </v>
   <v name="genvec1">      0.12500000       0.00000000       0.00000000 </v>
   <v name="genvec2">      0.00000000       0.12500000       0.00000000 </v>
   <v name="genvec3">      0.00000000       0.00000000       0.12500000 </v>
   <v name="shift">      0.50000000       0.50000000       0.50000000 </v>
  </generation>
  <varray name="kpointlist" >
   <v>       0.06250000       0.06250000       0.06250000 </v>
   <v>       0.18750000       0.06250000       0.06250000 </v>
   <v>       0.31250000       0.06250000       0.06250000 </v>
   <v>       0.43750000       0.06250000       0.06250000 </v>
   <v>      -0.43750000       0.06250000       0.06250000 </v>
   <v>      -0.31250000       0.06250000       0.06250000 </v>
   <v>      -0.18750000       0.06250000       0.06250000 </v>
   <v>      -0.06250000       0.06250000       0.06250000 </v>
   <v>       0.06250000       0.18750000       0.06250000 </v>
   <v>       0.18750000       0.18750000       0.06250000 </v>
   <v>       0.31250000       0.18750000       0.06250000 </v>
   <v>       0.43750000       0.18750000       0.06250000 </v>
   <v>      -0.43750000       0.18750000       0.06250000 </v>
   <v>      -0.31250000       0.18750000       0.06250000 </v>
   <v>      -0.18750000       0.18750000       0.06250000 </v>
   <v>      -0.06250000       0.18750000       0.06250000 </v>
   <v>       0.06250000       0.31250000       0.06250000 </v>
   <v>       0.18750000       0.31250000       0.06250000 </v>
   <v>       0.31250000       0.31250000       0.06250000 </v>
   <v>       0.43750000       0.31250000       0.06250000 </v>
   <v>      -0.43750000       0.31250000       0.06250000 </v>
   <v>      -0.31250000       0.31250000       0.06250000 </v>
   <v>      -0.18750000       0.31250000       0.06250000 </v>
   <v>      -0.06250000       0.31250000       0.06250000 </v>
   <v>       0.06250000       0.43750000       0.06250000 </v>
   <v>       0.18750000       0.43750000       0.06250000 </v>
   <v>       0.31250000       0.43750000       0.06250000 </v>
   <v>       0.43750000       0.43750000       0.06250000 </v>
   <v>      -0.43750000       0.43750000       0.06250000 </v>
   <v>      -0.31250000       0.43750000       0.06250000 </v>
   <v>      -0.18750000       0.43750000       0.06250000 </v>
   <v>      -0.06250000       0.43750000       0.06250000 </v>
   <v>       0.06250000      -0.43750000       0.06250000 </v>
   <v>       0.18750000      -0.43750000       0.06250000 </v>
   <v>       0.31250000      -0.43750000       0.06250000 </v>
   <v>       0.43750000      -0.43750000       0.06250000 </v>
   <v>      -0.43750000      -0.43750000       0.06250000 </v>
   <v>      -0.31250000      -0.43750000       0.06250000 </v>
   <v>      -0.18750000      -0.43750000       0.06250000 </v>
   <v>      -0.06250000      -0.43750000       0.06250000 </v>
   <v>       0.06250000      -0.31250000       0.06250000 </v>
   <v>       0.18750000      -0.31250000       0.06250000 </v>
   <v>       0.31250000      -0.31250000       0.06250000 </v>
   <v>       0.43750000      -0.31250000       0.06250000 </v>
   <v>      -0.43750000      -0.31250000       0.06250000 </v>
   <v>      -0.31250000      -0.31250000       0.06250000 </v>
   <v>      -0.18750000      -0.31250000       0.06250000 </v>
   <v>      -0.06250000      -0.31250000       0.06250000 </v>
   <v>       0.06250000      -0.18750000       0.06250000 </v>
   <v>       0.18750000      -0.18750000       0.06250000 </v>
   <v>       0.31250000      -0.18750000       0.06250000 </v>
   <v>       0.43750000      -0.18750000       0.06250000 </v>
   <v>      -0.43750000      -0.18750000       0.06250000 </v>
   <v>      -0.31250000      -0.18750000       0.06250000 </v>
   <v>      -0.18750000      -0.18750000       0.06250000 </v>
   <v>      -0.06250000      -0.18750000       0.06250000 </v>
   <v>       0.06250000      -0.06250000       0.06250000 </v>
   <v>       0.18750000      -0.06250000       0.06250000 </v>
   <v>       0.31250000      -0.06250000       0.06250000 </v>
   <v>       0.43750000      -0.06250000       0.06250000 </v>
   <v>      -0.43750000      -0.06250000       0.06250000 </v>
   <v>      -0.31250000      -0.06250000       0.06250000 </v>
   <v>      -0.18750000      -0.06250000       0.06250000 </v>
   <v>      -0.06250000      -0.06250000       0.06250000 </v>
   <v>       0.06250000       0.06250000       0.18750000 </v>
   <v>       0.18750000       0.06250000       0.18750000 </v>
   <v>       0.31250000       0.06250000       0.18750000 </v>
   <v>       0.43750000       0.06250000       0.18750000 </v>
   <v>      -0.43750000       0.06250000       0.18750000 </v>
   <v>      -0.31250000       0.06250000       0.18750000 </v>
   <v>      -0.18750000       0.06250000       0.18750000 </v>
   <v>      -0.06250000       0.06250000       0.18750000 </v>
   <v>       0.06250000       0.18750000       0.18750000 </v>
   <v>       0.18750000       0.18750000       0.18750000 </v>
   <v>       0.31250000       0.18750000       0.18750000 </v>
   <v>       0.43750000       0.18750000       0.18750000 </v>
   <v>      -0.43750000       0.18750000       0.18750000 </v>
   <v>      -0.31250000       0.18750000       0.18750000 </v>
   <v>      -0.18750000       0.18750000       0.18750000 </v>
   <v>      -0.06250000       0.18750000       0.18750000 </v>
   <v>       0.06250000       0.31250000       0.18750000 </v>
   <v>       0.18750000       0.31250000       0.18750000 </v>
   <v>       0.31250000       0.31250000       0.18750000 </v>
   <v>       0.43750000       0.31250000       0.18750000 </v>
   <v>      -0.43750000       0.31250000       0.18750000 </v>
   <v>      -0.31250000       0.31250000       0.18750000 </v>
   <v>      -0.18750000       0.31250000       0.18750000 </v>
   <v>      -0.06250000       0.31250000       0.18750000 </v>
   <v>       0.06250000       0.43750000       0.18750000 </v>
   <v>       0.18750000       0.43750000       0.18750000 </v>
   <v>       0.31250000       0.43750000       0.18750000 </v>
   <v>       0.43750000       0.43750000       0.18750000 </v>
   <v>      -0.43750000       0.43750000       0.18750000 </v>
   <v>      -0.31250000       0.43750000       0.18750000 </v>
   <v>      -0.18750000       0.43750000       0.18750000 </v>
   <v>      -0.06250000       0.43750000       0.18750000 </v>
   <v>       0.06250000      -0.43750000       0.18750000 </v>
   <v>       0.18750000      -0.43750000       0.18750000 </v>
   <v>       0.31250000      -0.43750000       0.18750000 </v>
   <v>       0.43750000      -0.43750000       0.18750000 </v>
   <v>      -0.43750000      -0.43750000       0.18750000 </v>
   <v>      -0.31250000      -0.43750000       0.18750000 </v>
   <v>      -0.18750000      -0.43750000       0.18750000 </v>
   <v>      -0.06250000      -0.43750000       0.18750000 </v>
   <v>       0.06250000      -0.31250000       0.18750000 </v>
   <v>       0.18750000      -0.31250000       0.18750000 </v>
   <v>       0.31250000      -0.31250000       0.18750000 </v>
   <v>       0.43750000      -0.31250000       0.18750000 </v>
   <v>      -0.43750000      -0.31250000       0.18750000 </v>
   <v>      -0.31250000      -0.31250000       0.18750000 </v>
   <v>      -0.18750000      -0.31250000       0.18750000 </v>
   <v>      -0.06250000      -0.31250000       0.18750000 </v>
   <v>       0.06250000      -0.18750000       0.18750000 </v>
   <v>       0.18750000      -0.18750000       0.18750000 </v>
   <v>       0.31250000      -0.18750000       0.18750000 </v>
   <v>       0.43750000      -0.18750000       0.18750000 </v>
   <v>      -0.43750000      -0.18750000       0.18750000 </v>
   <v>      -0.31250000      -0.18750000       0.18750000 </v>
   <v>      -0.18750000      -0.18750000       0.18750000 </v>
   <v>      -0.06250000      -0.18750000       0.18750000 </v>
   <v>       0.06250000      -0.06250000       0.18750000 </v>
   <v>       0.18750000      -0.06250000       0.18750000 </v>
   <v>       0.31250000      -0.06250000       0.18750000 </v>
   <v>       0.43750000      -0.06250000       0.18750000 </v>
   <v>      -0.43750000      -0.06250000       0.18750000 </v>
   <v>      -0.31250000      -0.06250000       0.18750000 </v>
   <v>      -0.18750000      -0.06250000       0.18750000 </v>
   <v>      -0.06250000      -0.06250000       0.18750000 </v>
   <v>       0.06250000       0.06250000       0.31250000 </v>
   <v>       0.18750000       0.06250000       0.31250000 </v>
   <v>       0.31250000       0.06250000       0.31250000 </v>
   <v>       0.43750000       0.06250000       0.31250000 </v>
   <v>      -0.43750000       0.06250000       0.31250000 </v>
   <v>      -0.31250000       0.06250000       0.31250000 </v>
   <v>      -0.18750000       0.06250000       0.31250000 </v>
   <v>      -0.06250000       0.06250000       0.31250000 </v>
   <v>       0.06250000       0.18750000       0.31250000 </v>
   <v>       0.18750000       0.18750000       0.31250000 </v>
   <v>       0.31250000       0.18750000       0.31250000 </v>
   <v>       0.43750000       0.18750000       0.31250000 </v>
   <v>      -0.43750000       0.18750000       0.31250000 </v>
   <v>      -0.31250000       0.18750000       0.31250000 </v>
   <v>      -0.18750000       0.18750000       0.31250000 </v>
   <v>      -0.06250000       0.18750000       0.31250000 </v>
   <v>       0.06250000       0.31250000       0.31250000 </v>
   <v>       0.18750000       0.31250000       0.31250000 </v>
   <v>       0.31250000       0.31250000       0.31250000 </v>
   <v>       0.43750000       0.31250000       0.31250000 </v>
   <v>      -0.43750000       0.31250000       0.31250000 </v>
   <v>      -0.31250000       0.31250000       0.31250000 </v>
   <v>      -0.18750000       0.31250000       0.31250000 </v>
   <v>      -0.06250000       0.31250000       0.31250000 </v>
   <v>       0.06250000       0.43750000       0.31250000 </v>
   <v>       0.18750000       0.43750000       0.31250000 </v>
   <v>       0.31250000       0.43750000       0.31250000 </v>
   <v>       0.43750000       0.43750000       0.31250000 </v>
   <v>      -0.43750000       0.43750000       0.31250000 </v>
   <v>      -0.31250000       0.43750000       0.31250000 </v>
   <v>      -0.18750000       0.43750000       0.31250000 </v>
   <v>      -0.06250000       0.43750000       0.31250000 </v>
   <v>       0.06250000      -0.43750000       0.31250000 </v>
   <v>       0.18750000      -0.43750000       0.31250000 </v>
   <v>       0.31250000      -0.43750000       0.31250000 </v>
   <v>       0.43750000      -0.43750000       0.31250000 </v>
   <v>      -0.43750000      -0.43750000       0.31250000 </v>
   <v>      -0.31250000      -0.43750000       0.31250000 </v>
   <v>      -0.18750000      -0.43750000       0.31250000 </v>
   <v>      -0.06250000      -0.43750000       0.31250000 </v>
   <v>       0.06250000      -0.31250000       0.31250000 </v>
   <v>       0.18750000      -0.31250000       0.31250000 </v>
   <v>       0.31250000      -0.31250000       0.31250000 </v>
   <v>       0.43750000      -0.31250000       0.31250000 </v>
   <v>      -0.43750000      -0.31250000       0.31250000 </v>
   <v>      -0.31250000      -0.31250000       0.31250000 </v>
   <v>      -0.18750000      -0.31250000       0.31250000 </v>
   <v>      -0.06250000      -0.31250000       0.31250000 </v>
   <v>       0.06250000      -0.18750000       0.31250000 </v>
   <v>       0.18750000      -0.18750000       0.31250000 </v>
   <v>       0.31250000      -0.18750000       0.31250000 </v>
   <v>       0.43750000      -0.18750000       0.31250000 </v>
   <v>      -0.43750000      -0.18750000       0.31250000 </v>
   <v>      -0.31250000      -0.18750000       0.31250000 </v>
   <v>      -0.18750000      -0.18750000       0.31250000 </v>
   <v>      -0.06250000      -0.18750000       0.31250000 </v>
   <v>       0.06250000      -0.06250000       0.31250000 </v>
   <v>       0.18750000      -0.06250000       0.31250000 </v>
   <v>       0.31250000      -0.06250000       0.31250000 </v>
   <v>       0.43750000      -0.06250000       0.31250000 </v>
   <v>      -0.43750000      -0.06250000       0.31250000 </v>
   <v>      -0.31250000      -0.06250000       0.31250000 </v>
   <v>      -0.18750000      -0.06250000       0.31250000 </v>
   <v>      -0.06250000      -0.06250000       0.31250000 </v>
   <v>       0.06250000       0.06250000       0.43750000 </v>
   <v>       0.18750000       0.06250000       0.43750000 </v>
   <v>       0.31250000       0.06250000       0.43750000 </v>
   <v>       0.43750000       0.06250000       0.43750000 </v>
   <v>      -0.43750000       0.06250000       0.43750000 </v>
   <v>      -0.31250000       0.06250000       0.43750000 </v>
   <v>      -0.18750000       0.06250000       0.43750000 </v>
   <v>      -0.06250000       0.06250000       0.43750000 </v>
   <v>       0.06250000       0.18750000       0.43750000 </v>
   <v>       0.18750000       0.18750000       0.43750000 </v>
   <v>       0.31250000       0.18750000       0.43750000 </v>
   <v>       0.43750000       0.18750000       0.43750000 </v>
   <v>      -0.43750000       0.18750000       0.43750000 </v>
   <v>      -0.31250000       0.18750000       0.43750000 </v>
   <v>      -0.18750000       0.18750000       0.43750000 </v>
   <v>      -0.06250000       0.18750000       0.43750000 </v>
   <v>       0.06250000       0.31250000       0.43750000 </v>
   <v>       0.18750000       0.31250000       0.43750000 </v>
   <v>       0.31250000       0.31250000       0.43750000 </v>
   <v>       0.43750000       0.31250000       0.43750000 </v>
   <v>      -0.43750000       0.31250000       0.43750000 </v>
   <v>      -0.31250000       0.31250000       0.43750000 </v>
   <v>      -0.18750000       0.31250000       0.43750000 </v>
   <v>      -0.06250000       0.31250000       0.43750000 </v>
   <v>       0.06250000       0.43750000       0.43750000 </v>
   <v>       0.18750000       0.43750000       0.43750000 </v>
   <v>       0.31250000       0.43750000       0.43750000 </v>
   <v>       0.43750000       0.43750000       0.43750000 </v>
   <v>      -0.43750000       0.43750000       0.43750000 </v>
   <v>      -0.31250000       0.43750000       0.43750000 </v>
   <v>      -0.18750000       0.43750000       0.43750000 </v>
   <v>      -0.06250000       0.43750000       0.43750000 </v>
   <v>       0.06250000      -0.43750000       0.43750000 </v>
   <v>       0.18750000      -0.43750000       0.43750000 </v>
   <v>       0.31250000      -0.43750000       0.43750000 </v>
   <v>       0.43750000      -0.43750000       0.43750000 </v>
   <v>      -0.43750000      -0.43750000       0.43750000 </v>
   <v>      -0.31250000      -0.43750000       0.43750000 </v>
   <v>      -0.18750000      -0.43750000       0.43750000 </v>
   <v>      -0.06250000      -0.43750000       0.43750000 </v>
   <v>       0.06250000      -0.31250000       0.43750000 </v>
   <v>       0.18750000      -0.31250000       0.43750000 </v>
   <v>       0.31250000      -0.31250000       0.43750000 </v>
   <v>       0.43750000      -0.31250000       0.43750000 </v>
   <v>      -0.43750000      -0.31250000       0.43750000 </v>
   <v>      -0.31250000      -0.31250000       0.43750000 </v>
   <v>      -0.18750000      -0.31250000       0.43750000 </v>
   <v>      -0.06250000      -0.31250000       0.43750000 </v>
   <v>       0.06250000      -0.18750000       0.43750000 </v>
   <v>       0.18750000      -0.18750000       0.43750000 </v>
   <v>       0.31250000      -0.18750000       0.43750000 </v>
   <v>       0.43750000      -0.18750000       0.43750000 </v>
   <v>      -0.43750000      -0.18750000       0.43750000 </v>
   <v>      -0.31250000      -0.18750000       0.43750000 </v>
   <v>      -0.18750000      -0.18750000       0.43750000 </v>
   <v>      -0.06250000      -0.18750000       0.43750000 </v>
   <v>       0.06250000      -0.06250000       0.43750000 </v>
   <v>       0.18750000      -0.06250000       0.43750000 </v>
   <v>       0.31250000      -0.06250000       0.43750000 </v>
   <v>       0.43750000      -0.06250000       0.43750000 </v>
   <v>      -0.43750000      -0.06250000       0.43750000 </v>
   <v>      -0.31250000      -0.06250000       0.43750000 </v>
   <v>      -0.18750000      -0.06250000       0.43750000 </v>
   <v>      -0.06250000      -0.06250000       0.43750000 </v>
  </varray>
  <varray name="weights" >
   <v>       0.00390625 </v>
   <v>       0.00390625 </v>
   <v>       0.00390625 </v>
   <v>       0.00390625 </v>
   <v>       0.00390625 </v>
   <v>       0.00390625 </v>
   <v>       0.00390625 </v>
   <v>       0.00390625 </v>
   <v>       0.00390625 </v>
   <v>       0.00390625 </v>
   <v>       0.00390625 </v>
   <v>       0.00390625 </v>
   <v>       0.00390625 </v>
   <v>       0.00390625 </v>
   <v>       0.00390625 </v>
   <v>       0.00390625 </v>
   <v>       0.00390625 </v>
   <v>       0.00390625 </v>
   <v>       0.00390625 </v>
   <v>       0.00390625 </v>
   <v>       0.00390625 </v>
   <v>       0.00390625 </v>
   <v>       0.00390625 </v>
   <v>       0.00390625 </v>
   <v>       0.00390625 </v>
   <v>       0.00390625 </v>
   <v>       0.00390625 </v>
   <v>       0.00390625 </v>
   <v>       0.00390625 </v>
   <v>       0.00390625 </v>
   <v>       0.00390625 </v>
   <v>       0.00390625 </v>
   <v>       0.00390625 </v>
   <v>       0.00390625 </v>
   <v>       0.00390625 </v>
   <v>       0.00390625 </v>
   <v>       0.00390625 </v>
   <v>       0.00390625 </v>
   <v>       0.00390625 </v>
   <v>       0.00390625 </v>
   <v>       0.00390625 </v>
   <v>       0.00390625 </v>
   <v>       0.00390625 </v>
   <v>       0.00390625 </v>
   <v>       0.00390625 </v>
   <v>       0.00390625 </v>
   <v>       0.00390625 </v>
   <v>       0.00390625 </v>
   <v>       0.00390625 </v>
   <v>       0.00390625 </v>
   <v>       0.00390625 </v>
   <v>       0.00390625 </v>
   <v>       0.00390625 </v>
   <v>       0.00390625 </v>
   <v>       0.00390625 </v>
   <v>       0.00390625 </v>
   <v>       0.00390625 </v>
   <v>       0.00390625 </v>
   <v>       0.00390625 </v>
   <v>       0.00390625 </v>
   <v>       0.00390625 </v>
   <v>       0.00390625 </v>
   <v>       0.00390625 </v>
   <v>       0.00390625 </v>
   <v>       0.00390625 </v>
   <v>       0.00390625 </v>
   <v>       0.00390625 </v>
   <v>       0.00390625 </v>
   <v>       0.00390625 </v>
   <v>       0.00390625 </v>
   <v>       0.00390625 </v>
   <v>       0.00390625 </v>
   <v>       0.00390625 </v>
   <v>       0.00390625 </v>
   <v>       0.00390625 </v>
   <v>       0.00390625 </v>
   <v>       0.00390625 </v>
   <v>       0.00390625 </v>
   <v>       0.00390625 </v>
   <v>       0.00390625 </v>
   <v>       0.00390625 </v>
   <v>       0.00390625 </v>
   <v>       0.00390625 </v>
   <v>       0.00390625 </v>
   <v>       0.00390625 </v>
   <v>       0.00390625 </v>
   <v>       0.00390625 </v>
   <v>       0.00390625 </v>
   <v>       0.00390625 </v>
   <v>       0.00390625 </v>
   <v>       0.00390625 </v>
   <v>       0.00390625 </v>
   <v>       0.00390625 </v>
   <v>       0.00390625 </v>
   <v>       0.00390625 </v>
   <v>       0.00390625 </v>
   <v>       0.00390625 </v>
   <v>       0.00390625 </v>
   <v>       0.00390625 </v>
   <v>       0.00390625 </v>
   <v>       0.00390625 </v>
   <v>       0.00390625 </v>
   <v>       0.00390625 </v>
   <v>       0.00390625 </v>
   <v>       0.00390625 </v>
   <v>       0.00390625 </v>
   <v>       0.00390625 </v>
   <v>       0.00390625 </v>
   <v>       0.00390625 </v>
   <v>       0.00390625 </v>
   <v>       0.00390625 </v>
   <v>       0.00390625 </v>
   <v>       0.00390625 </v>
   <v>       0.00390625 </v>
   <v>       0.00390625 </v>
   <v>       0.00390625 </v>
   <v>       0.00390625 </v>
   <v>       0.00390625 </v>
   <v>       0.00390625 </v>
   <v>       0.00390625 </v>
   <v>       0.00390625 </v>
   <v>       0.00390625 </v>
   <v>       0.00390625 </v>
   <v>       0.00390625 </v>
   <v>       0.00390625 </v>
   <v>       0.00390625 </v>
   <v>       0.00390625 </v>
   <v>       0.00390625 </v>
   <v>       0.00390625 </v>
   <v>       0.00390625 </v>
   <v>       0.00390625 </v>
   <v>       0.00390625 </v>
   <v>       0.00390625 </v>
   <v>       0.00390625 </v>
   <v>       0.00390625 </v>
   <v>       0.00390625 </v>
   <v>       0.00390625 </v>
   <v>       0.00390625 </v>
   <v>       0.00390625 </v>
   <v>       0.00390625 </v>
   <v>       0.00390625 </v>
   <v>       0.00390625 </v>
   <v>       0.00390625 </v>
   <v>       0.00390625 </v>
   <v>       0.00390625 </v>
   <v>       0.00390625 </v>
   <v>       0.00390625 </v>
   <v>       0.00390625 </v>
   <v>       0.00390625 </v>
   <v>       0.00390625 </v>
   <v>       0.00390625 </v>
   <v>       0.00390625 </v>
   <v>       0.00390625 </v>
   <v>       0.00390625 </v>
   <v>       0.00390625 </v>
   <v>       0.00390625 </v>
   <v>       0.00390625 </v>
   <v>       0.00390625 </v>
   <v>       0.00390625 </v>
   <v>       0.00390625 </v>
   <v>       0.00390625 </v>
   <v>       0.00390625 </v>
   <v>       0.00390625 </v>
   <v>       0.00390625 </v>
   <v>       0.00390625 </v>
   <v>       0.00390625 </v>
   <v>       0.00390625 </v>
   <v>       0.00390625 </v>
   <v>       0.00390625 </v>
   <v>       0.00390625 </v>
   <v>       0.00390625 </v>
   <v>       0.00390625 </v>
   <v>       0.00390625 </v>
   <v>       0.00390625 </v>
   <v>       0.00390625 </v>
   <v>       0.00390625 </v>
   <v>       0.00390625 </v>
   <v>       0.00390625 </v>
   <v>       0.00390625 </v>
   <v>       0.00390625 </v>
   <v>       0.00390625 </v>
   <v>       0.00390625 </v>
   <v>       0.00390625 </v>
   <v>       0.00390625 </v>
   <v>       0.00390625 </v>
   <v>       0.00390625 </v>
   <v>       0.00390625 </v>
   <v>       0.00390625 </v>
   <v>       0.00390625 </v>
   <v>       0.00390625 </v>
   <v>       0.00390625 </v>
   <v>       0.00390625 </v>
   <v>       0.00390625 </v>
   <v>       0.00390625 </v>
   <v>       0.00390625 </v>
   <v>       0.00390625 </v>
   <v>       0.00390625 </v>
   <v>       0.00390625 </v>
   <v>       0.00390625 </v>
   <v>       0.00390625 </v>
   <v>       0.00390625 </v>
   <v>       0.00390625 </v>
   <v>       0.00390625 </v>
   <v>       0.00390625 </v>
   <v>       0.00390625 </v>
   <v>       0.00390625 </v>
   <v>       0.00390625 </v>
   <v>       0.00390625 </v>
   <v>       0.00390625 </v>
   <v>       0.00390625 </v>
   <v>       0.00390625 </v>
   <v>       0.00390625 </v>
   <v>       0.00390625 </v>
   <v>       0.00390625 </v>
   <v>       0.00390625 </v>
   <v>       0.00390625 </v>
   <v>       0.00390625 </v>
   <v>       0.00390625 </v>
   <v>       0.00390625 </v>
   <v>       0.00390625 </v>
   <v>       0.00390625 </v>
   <v>       0.00390625 </v>
   <v>       0.00390625 </v>
   <v>       0.00390625 </v>
   <v>       0.00390625 </v>
   <v>       0.00390625 </v>
   <v>       0.00390625 </v>
   <v>       0.00390625 </v>
   <v>       0.00390625 </v>
   <v>       0.00390625 </v>
   <v>       0.00390625 </v>
   <v>       0.00390625 </v>
   <v>       0.00390625 </v>
   <v>       0.00390625 </v>
   <v>       0.00390625 </v>
   <v>       0.00390625 </v>
   <v>       0.00390625 </v>
   <v>       0.00390625 </v>
   <v>       0.00390625 </v>
   <v>       0.00390625 </v>
   <v>       0.00390625 </v>
   <v>       0.00390625 </v>
   <v>       0.00390625 </v>
   <v>       0.00390625 </v>
   <v>       0.00390625 </v>
   <v>       0.00390625 </v>
   <v>       0.00390625 </v>
   <v>       0.00390625 </v>
   <v>       0.00390625 </v>
   <v>       0.00390625 </v>
   <v>       0.00390625 </v>
   <v>       0.00390625 </v>
   <v>       0.00390625 </v>
   <v>       0.00390625 </v>
   <v>       0.00390625 </v>
   <v>       0.00390625 </v>
  </varray>
 </kpoints>
 <parameters>
  <separator name="general" >
   <i type="string" name="SYSTEM">unknown system</i>
   <i type="logical" name="LCOMPAT"> F  </i>
  </separator>
  <separator name="electronic" >
   <i type="string" name="PREC">accura</i>
   <i name="ENMAX">    400.00000000</i>
   <i name="ENAUG">    322.06900000</i>
   <i name="EDIFF">      0.00010000</i>
   <i type="int" name="IALGO">    38</i>
   <i type="int" name="IWAVPR">    10</i>
   <i type="int" name="NBANDS">    24</i>
   <i name="NELECT">     32.00000000</i>
   <i type="int" name="TURBO">     0</i>
   <i type="int" name="IRESTART">     0</i>
   <i type="int" name="NREBOOT">     0</i>
   <i type="int" name="NMIN">     0</i>
   <i name="EREF">      0.00000000</i>
   <separator name="electronic smearing" >
    <i type="int" name="ISMEAR">     2</i>
    <i name="SIGMA">      0.01000000</i>
    <i name="KSPACING">      0.50000000</i>
    <i type="logical" name="KGAMMA"> T  </i>
   </separator>
   <separator name="electronic projectors" >
    <i type="logical" name="LREAL"> F  </i>
    <v name="ROPT">      0.00000000</v>
    <i type="int" name="LMAXPAW">  -100</i>
    <i type="int" name="LMAXMIX">     2</i>
    <i type="logical" name="NLSPLINE"> F  </i>
   </separator>
   <separator name="electronic startup" >
    <i type="int" name="ISTART">     0</i>
    <i type="int" name="ICHARG">     2</i>
    <i type="int" name="INIWAV">     1</i>
   </separator>
   <separator name="electronic spin" >
    <i type="int" name="ISPIN">     1</i>
    <i type="logical" name="LNONCOLLINEAR"> F  </i>
    <v name="MAGMOM">      1.00000000      1.00000000      1.00000000      1.00000000      1.00000000      1.00000000      1.00000000      1.00000000</v>
    <i name="NUPDOWN">     -1.00000000</i>
    <i type="logical" name="LSORBIT"> F  </i>
    <v name="SAXIS">      0.00000000      0.00000000      1.00000000</v>
    <i type="logical" name="LSPIRAL"> F  </i>
    <v name="QSPIRAL">      0.00000000      0.00000000      0.00000000</v>
    <i type="logical" name="LZEROZ"> F  </i>
   </separator>
   <separator name="electronic exchange-correlation" >
    <i type="logical" name="LASPH"> F  </i>
    <i type="logical" name="LMETAGGA"> F  </i>
   </separator>
   <separator name="electronic convergence" >
    <i type="int" name="NELM">    60</i>
    <i type="int" name="NELMDL">    -5</i>
    <i type="int" name="NELMIN">     2</i>
    <i name="ENINI">    400.00000000</i>
    <separator name="electronic convergence detail" >
     <i type="logical" name="LDIAG"> T  </i>
     <i type="logical" name="LSUBROT"> F  </i>
     <i name="WEIMIN">      0.00000000</i>
     <i name="EBREAK">      0.00000104</i>
     <i name="DEPER">      0.30000000</i>
     <i type="int" name="NRMM">     4</i>
     <i name="TIME">      0.40000000</i>
    </separator>
   </separator>
   <separator name="electronic mixer" >
    <i name="AMIX">      0.40000000</i>
    <i name="BMIX">      1.00000000</i>
    <i name="AMIN">      0.10000000</i>
    <i name="AMIX_MAG">      1.60000000</i>
    <i name="BMIX_MAG">      1.00000000</i>
    <separator name="electronic mixer details" >
     <i type="int" name="IMIX">     4</i>
     <i type="logical" name="MIXFIRST"> F  </i>
     <i type="int" name="MAXMIX">   -45</i>
     <i name="WC">    100.00000000</i>
     <i type="int" name="INIMIX">     1</i>
     <i type="int" name="MIXPRE">     1</i>
     <i type="int" name="MREMOVE">     5</i>
    </separator>
   </separator>
   <separator name="electronic dipolcorrection" >
    <i type="logical" name="LDIPOL"> F  </i>
    <i type="logical" name="LMONO"> F  </i>
    <i type="int" name="IDIPOL">     0</i>
    <i name="EPSILON">      1.00000000</i>
    <v name="DIPOL">   -100.00000000   -100.00000000   -100.00000000</v>
    <i name="EFIELD">      0.00000000</i>
   </separator>
  </separator>
  <separator name="grids" >
   <i type="int" name="NGX">    36</i>
   <i type="int" name="NGY">    36</i>
   <i type="int" name="NGZ">    36</i>
   <i type="int" name="NGXF">    72</i>
   <i type="int" name="NGYF">    72</i>
   <i type="int" name="NGZF">    72</i>
   <i type="logical" name="ADDGRID"> F  </i>
  </separator>
  <separator name="ionic" >
   <i type="int" name="NSW">     0</i>
   <i type="int" name="IBRION">    -1</i>
   <i type="int" name="ISIF">     2</i>
   <i name="PSTRESS">      0.00000000</i>
   <i name="EDIFFG">      0.00100000</i>
   <i type="int" name="NFREE">     0</i>
   <i name="POTIM">      0.50000000</i>
   <i name="SMASS">     -3.00000000</i>
   <i name="SCALEE">      1.00000000</i>
  </separator>
  <separator name="ionic md" >
   <i name="TEBEG">      0.00010000</i>
   <i name="TEEND">      0.00010000</i>
   <i type="int" name="NBLOCK">     1</i>
   <i type="int" name="KBLOCK">     1</i>
   <i type="int" name="NPACO">   256</i>
   <i name="APACO">     16.00000000</i>
  </separator>
  <separator name="symmetry" >
   <i type="int" name="ISYM">     2</i>
   <i name="SYMPREC">      0.00001000</i>
  </separator>
  <separator name="dos" >
   <i type="logical" name="LORBIT"> F  </i>
   <v name="RWIGS">     -1.00000000</v>
   <i type="int" name="NEDOS">   301</i>
   <i name="EMIN">     10.00000000</i>
   <i name="EMAX">    -10.00000000</i>
   <i name="EFERMI">      0.00000000</i>
  </separator>
  <separator name="writing" >
   <i type="int" name="NWRITE">     1</i>
   <i type="logical" name="LWAVE"> T  </i>
   <i type="logical" name="LCHARG"> T  </i>
   <i type="logical" name="LPARD"> F  </i>
   <i type="logical" name="LVTOT"> F  </i>
   <i type="logical" name="LVHAR"> F  </i>
   <i type="logical" name="LELF"> F  </i>
   <i type="logical" name="LOPTICS"> F  </i>
   <v name="STM">      0.00000000      0.00000000      0.00000000      0.00000000      0.00000000      0.00000000      0.00000000</v>
  </separator>
  <separator name="performance" >
   <i type="int" name="NPAR">     8</i>
   <i type="int" name="NSIM">     4</i>
   <i type="int" name="NBLK">    -1</i>
   <i type="logical" name="LPLANE"> T  </i>
   <i type="logical" name="LSCALAPACK"> T  </i>
   <i type="logical" name="LSCAAWARE"> F  </i>
   <i type="logical" name="LSCALU"> F  </i>
   <i type="logical" name="LASYNC"> F  </i>
   <i type="logical" name="LORBITALREAL"> F  </i>
  </separator>
  <separator name="miscellaneous" >
   <i type="int" name="IDIOT">     3</i>
   <i type="logical" name="LMUSIC"> F  </i>
   <v name="POMASS">     28.08500000</v>
   <v name="DARWINR">      0.00000000</v>
   <v name="DARWINV">      1.00000000</v>
   <i type="logical" name="LCORR"> T  </i>
  </separator>
  <i type="logical" name="GGA_COMPAT"> T  </i>
  <i type="logical" name="LBERRY"> F  </i>
  <i type="int" name="ICORELEVEL">     0</i>
  <i type="logical" name="LDAU"> F  </i>
  <i type="int" name="I_CONSTRAINED_M">     0</i>
  <separator name="electronic exchange-correlation" >
   <i type="string" name="GGA">--</i>
   <i type="int" name="VOSKOWN">     0</i>
   <i type="logical" name="LHFCALC"> F  </i>
   <i type="string" name="PRECFOCK"></i>
   <i type="logical" name="LSYMGRAD"> F  </i>
   <i type="logical" name="LHFONE"> F  </i>
   <i type="logical" name="LRHFCALC"> F  </i>
   <i type="logical" name="LTHOMAS"> F  </i>
   <i type="logical" name="LMODELHF"> F  </i>
   <i name="ENCUT4O">     -1.00000000</i>
   <i type="int" name="EXXOEP">     0</i>
   <i type="int" name="FOURORBIT">     0</i>
   <i name="AEXX">      0.00000000</i>
   <i name="HFALPHA">      0.00000000</i>
   <i name="MCALPHA">      0.00000000</i>
   <i name="ALDAX">      1.00000000</i>
   <i name="AGGAX">      1.00000000</i>
   <i name="ALDAC">      1.00000000</i>
   <i name="AGGAC">      1.00000000</i>
   <i type="int" name="NKREDX">     1</i>
   <i type="int" name="NKREDY">     1</i>
   <i type="int" name="NKREDZ">     1</i>
   <i type="logical" name="SHIFTRED"> F  </i>
   <i type="logical" name="ODDONLY"> F  </i>
   <i type="logical" name="EVENONLY"> F  </i>
   <i type="int" name="LMAXFOCK">     0</i>
   <i type="int" name="NMAXFOCKAE">     0</i>
   <i type="logical" name="LFOCKAEDFT"> F  </i>
   <i name="HFSCREEN">      0.00000000</i>
   <i name="HFSCREENC">      0.00000000</i>
   <i type="int" name="NBANDSGWLOW">     0</i>
  </separator>
  <separator name="vdW DFT" >
   <i type="logical" name="LUSE_VDW"> F  </i>
   <i name="Zab_VDW">     -0.84910000</i>
   <i name="PARAM1">      0.12340000</i>
   <i name="PARAM2">      1.00000000</i>
   <i name="PARAM3">      0.00000000</i>
  </separator>
  <separator name="model GW" >
   <i type="int" name="MODEL_GW">     0</i>
   <i name="MODEL_EPS0">     12.26874997</i>
   <i name="MODEL_ALPHA">      1.00000000</i>
  </separator>
  <separator name="linear response parameters" >
   <i type="logical" name="LEPSILON"> F  </i>
   <i type="logical" name="LRPA"> F  </i>
   <i type="logical" name="LNABLA"> F  </i>
   <i type="logical" name="LVEL"> F  </i>
   <i type="int" name="KINTER">     0</i>
   <i name="CSHIFT">      0.10000000</i>
   <i name="OMEGAMAX">     -1.00000000</i>
   <i name="DEG_THRESHOLD">      0.00200000</i>
  </separator>
  <separator name="orbital magnetization" >
   <i type="logical" name="NUCIND"> F  </i>
   <v name="MAGPOS">      0.00000000      0.00000000      0.00000000</v>
   <i type="logical" name="LNICSALL"> T  </i>
   <i type="logical" name="ORBITALMAG"> F  </i>
   <i type="logical" name="LMAGBLOCH"> F  </i>
   <i type="logical" name="LCHIMAG"> F  </i>
   <i type="logical" name="LGAUGE"> T  </i>
   <i type="int" name="MAGATOM">     0</i>
   <v name="MAGDIPOL">      0.00000000      0.00000000      0.00000000</v>
   <v name="AVECCONST">      0.00000000      0.00000000      0.00000000</v>
  </separator>
  <separator name="response functions" >
   <i type="logical" name="LADDER"> F  </i>
   <i type="logical" name="LFXC"> F  </i>
   <i type="logical" name="LHARTREE"> T  </i>
   <i type="int" name="IBSE">     0</i>
   <v type="int" name="KPOINT">    -1     0     0     0</v>
   <i type="logical" name="LTCTE"> F  </i>
   <i type="logical" name="LTETE"> F  </i>
   <i type="logical" name="LTRIPLET"> F  </i>
   <i type="logical" name="LFXCEPS"> F  </i>
   <i type="logical" name="LFXHEG"> F  </i>
   <i type="int" name="NATURALO">     0</i>
   <i type="logical" name="L2ORDER"> F  </i>
   <i type="logical" name="LUSEW"> F  </i>
   <i name="ENCUTGW">     -2.00000000</i>
   <i name="ENCUTGWSOFT">     -2.00000000</i>
   <i name="ENCUTLF">     -1.00000000</i>
   <i type="int" name="LMAXMP2">    -1</i>
   <i name="SCISSOR">      0.00000000</i>
   <i type="int" name="NOMEGA">     0</i>
   <i type="int" name="NOMEGAR">     0</i>
   <i type="int" name="NBANDSGW">    -1</i>
   <i type="int" name="NBANDSO">    -1</i>
   <i type="int" name="NBANDSV">    -1</i>
   <i type="int" name="NELM">     1</i>
   <i type="int" name="NELMHF">     1</i>
   <i type="int" name="DIM">     3</i>
   <i type="int" name="ANTIRES">     0</i>
   <i name="OMEGAMAX">    -30.00000000</i>
   <i name="OMEGAMIN">    -30.00000000</i>
   <i name="OMEGATL">   -200.00000000</i>
   <i type="int" name="OMEGAGRID">     0</i>
   <i name="CSHIFT">     -0.10000000</i>
   <i type="logical" name="SELFENERGY"> F  </i>
   <i type="logical" name="LSPECTRAL"> F  </i>
   <i type="logical" name="LSPECTRALGW"> F  </i>
   <i type="logical" name="LSINGLES"> F  </i>
   <i type="logical" name="LFERMIGW"> F  </i>
   <i type="logical" name="ODDONLYGW"> F  </i>
   <i type="logical" name="EVENONLYGW"> F  </i>
   <i type="int" name="NKREDLFX">     1</i>
   <i type="int" name="NKREDLFY">     1</i>
   <i type="int" name="NKREDLFZ">     1</i>
   <i type="int" name="MAXMEM">  1800</i>
   <i type="int" name="TELESCOPE">     0</i>
   <i type="int" name="TAUPAR">     1</i>
   <i type="int" name="OMEGAPAR">    -1</i>
   <i name="LAMBDA">      1.00000000</i>
  </separator>
  <separator name="External order field" >
   <i name="OFIELD_KAPPA">      0.00000000</i>
   <v name="OFIELD_K">      0.00000000      0.00000000      0.00000000</v>
   <i name="OFIELD_Q6_NEAR">      0.00000000</i>
   <i name="OFIELD_Q6_FAR">      0.00000000</i>
   <i name="OFIELD_A">      0.00000000</i>
  </separator>
 </parameters>
 <atominfo>
  <atoms>       8 </atoms>
  <types>       1 </types>
  <array name="atoms" >
   <dimension dim="1">ion</dimension>
   <field type="string">element</field>
   <field type="int">atomtype</field>
   <set>
    <rc><c>Si</c><c>   1</c></rc>
    <rc><c>Si</c><c>   1</c></rc>
    <rc><c>Si</c><c>   1</c></rc>
    <rc><c>Si</c><c>   1</c></rc>
    <rc><c>Si</c><c>   1</c></rc>
    <rc><c>Si</c><c>   1</c></rc>
    <rc><c>Si</c><c>   1</c></rc>
    <rc><c>Si</c><c>   1</c></rc>
   </set>
  </array>
  <array name="atomtypes" >
   <dimension dim="1">type</dimension>
   <field type="int">atomspertype</field>
   <field type="string">element</field>
   <field>mass</field>
   <field>valence</field>
   <field type="string">pseudopotential</field>
   <set>
    <rc><c>   8</c><c>Si</c><c>     28.08500000</c><c>      4.00000000</c><c>  PAW_PBE Si 05Jan2001                  </c></rc>
   </set>
  </array>
 </atominfo>
 <structure name="initialpos" >
  <crystal>
   <varray name="basis" >
    <v>       5.46906415       0.00000000       0.00000000 </v>
    <v>       0.00000000       5.46906415       0.00000000 </v>
    <v>       0.00000000       0.00000000       5.46906415 </v>
   </varray>
   <i name="volume">    163.58333295 </i>
   <varray name="rec_basis" >
    <v>       0.18284664       0.00000000       0.00000000 </v>
    <v>       0.00000000       0.18284664       0.00000000 </v>
    <v>       0.00000000       0.00000000       0.18284664 </v>
   </varray>
  </crystal>
  <varray name="positions" >
   <v>       0.15634041       0.00399078       0.11967558 </v>
   <v>       0.40005299       0.27291730       0.34586601 </v>
   <v>       0.65747090       0.49448779       0.07813399 </v>
   <v>       0.89228036       0.74710451       0.33711448 </v>
   <v>       0.62919187       0.00893128       0.59156178 </v>
   <v>       0.91348232       0.23125143       0.83792999 </v>
   <v>       0.13384464       0.51121210       0.58563191 </v>
   <v>       0.40046674       0.76709901       0.83218961 </v>
  </varray>
 </structure>
 <calculation>
  <scstep>
   <time name="dav">    6.14    6.20</time>
   <time name="total">    6.23    6.29</time>
   <energy>
    <i name="alphaZ">     13.17029267 </i>
    <i name="ewald">   -907.86985349 </i>
    <i name="hartreedc">    -45.24889412 </i>
    <i name="XCdc">    -74.76177220 </i>
    <i name="pawpsdc">    704.99039692 </i>
    <i name="pawaedc">   -564.24414232 </i>
    <i name="eentropy">     -0.00001912 </i>
    <i name="bandstr">    103.79405055 </i>
    <i name="atom">    824.52596983 </i>
    <i name="e_fr_energy">     54.35602871 </i>
    <i name="e_wo_entrp">     54.35604783 </i>
    <i name="e_0_energy">     54.35603349 </i>
   </energy>
  </scstep>
  <scstep>
   <time name="dav">    7.53    7.55</time>
   <time name="total">    7.55    7.58</time>
   <energy>
    <i name="e_fr_energy">    -39.54287288 </i>
    <i name="e_wo_entrp">    -39.54287503 </i>
    <i name="e_0_energy">    -39.54287342 </i>
   </energy>
  </scstep>
  <scstep>
   <time name="dav">    7.51    7.53</time>
   <time name="total">    7.53    7.54</time>
   <energy>
    <i name="e_fr_energy">    -43.69740923 </i>
    <i name="e_wo_entrp">    -43.69740923 </i>
    <i name="e_0_energy">    -43.69740923 </i>
   </energy>
  </scstep>
  <scstep>
   <time name="dav">    7.27    7.28</time>
   <time name="total">    7.28    7.30</time>
   <energy>
    <i name="e_fr_energy">    -43.76761221 </i>
    <i name="e_wo_entrp">    -43.76761221 </i>
    <i name="e_0_energy">    -43.76761221 </i>
   </energy>
  </scstep>
  <scstep>
   <time name="dav">    7.57    7.57</time>
   <time name="total">    7.78    7.81</time>
   <energy>
    <i name="e_fr_energy">    -43.76935484 </i>
    <i name="e_wo_entrp">    -43.76935484 </i>
    <i name="e_0_energy">    -43.76935484 </i>
   </energy>
  </scstep>
  <scstep>
   <time name="dav">    7.09    7.11</time>
   <time name="total">    7.34    7.35</time>
   <energy>
    <i name="e_fr_energy">    -43.29434911 </i>
    <i name="e_wo_entrp">    -43.29434911 </i>
    <i name="e_0_energy">    -43.29434911 </i>
   </energy>
  </scstep>
  <scstep>
   <time name="dav">    6.99    6.99</time>
   <time name="total">    7.23    7.24</time>
   <energy>
    <i name="e_fr_energy">    -43.08177584 </i>
    <i name="e_wo_entrp">    -43.08177584 </i>
    <i name="e_0_energy">    -43.08177584 </i>
   </energy>
  </scstep>
  <scstep>
   <time name="dav">    7.31    7.31</time>
   <time name="total">    7.53    7.56</time>
   <energy>
    <i name="e_fr_energy">    -43.08542638 </i>
    <i name="e_wo_entrp">    -43.08543326 </i>
    <i name="e_0_energy">    -43.08542810 </i>
   </energy>
  </scstep>
  <scstep>
   <time name="dav">    7.49    7.49</time>
   <time name="total">    7.73    7.73</time>
   <energy>
    <i name="e_fr_energy">    -43.08639809 </i>
    <i name="e_wo_entrp">    -43.08639809 </i>
    <i name="e_0_energy">    -43.08639809 </i>
   </energy>
  </scstep>
  <scstep>
   <time name="dav">    7.23    7.23</time>
   <time name="total">    7.46    7.48</time>
   <energy>
    <i name="e_fr_energy">    -43.08654750 </i>
    <i name="e_wo_entrp">    -43.08655425 </i>
    <i name="e_0_energy">    -43.08654919 </i>
   </energy>
  </scstep>
  <scstep>
   <time name="dav">    5.95    5.94</time>
   <time name="total">    5.99    6.00</time>
   <energy>
    <i name="alphaZ">     13.17029267 </i>
    <i name="ewald">   -907.86985349 </i>
    <i name="hartreedc">    -60.35136261 </i>
    <i name="XCdc">    -72.29987159 </i>
    <i name="pawpsdc">   3290.81587218 </i>
    <i name="pawaedc">  -3150.88239318 </i>
    <i name="eentropy">      0.00000000 </i>
    <i name="bandstr">     19.80473895 </i>
    <i name="atom">    824.52596983 </i>
    <i name="e_fr_energy">    -43.08660724 </i>
    <i name="e_wo_entrp">    -43.08660724 </i>
    <i name="e_0_energy">    -43.08660724 </i>
   </energy>
  </scstep>
  <structure>
   <crystal>
    <varray name="basis" >
     <v>       5.46906415       0.00000000       0.00000000 </v>
     <v>       0.00000000       5.46906415       0.00000000 </v>
     <v>       0.00000000       0.00000000       5.46906415 </v>
    </varray>
    <i name="volume">    163.58333295 </i>
    <varray name="rec_basis" >
     <v>       0.18284664       0.00000000       0.00000000 </v>
     <v>       0.00000000       0.18284664       0.00000000 </v>
     <v>       0.00000000       0.00000000       0.18284664 </v>
    </varray>
   </crystal>
   <varray name="positions" >
    <v>       0.15634041       0.00399078       0.11967558 </v>
    <v>       0.40005299       0.27291730       0.34586601 </v>
    <v>       0.65747090       0.49448779       0.07813399 </v>
    <v>       0.89228036       0.74710451       0.33711448 </v>
    <v>       0.62919187       0.00893128       0.59156178 </v>
    <v>       0.91348232       0.23125143       0.83792999 </v>
    <v>       0.13384464       0.51121210       0.58563191 </v>
    <v>       0.40046674       0.76709901       0.83218961 </v>
   </varray>
  </structure>
  <varray name="forces" >
   <v>       0.15020405      -0.21155774      -1.09190044 </v>
   <v>      -0.04466372       0.05730532      -0.13084324 </v>
   <v>      -0.16505328       0.30860621      -0.48497738 </v>
   <v>      -0.81814800       0.58223948       0.10844283 </v>
   <v>       1.47538141       0.17618672      -0.66187539 </v>
   <v>      -0.40392814       0.41626425       0.20312269 </v>
   <v>       0.69020484      -0.17751860       0.83749334 </v>
   <v>      -0.88399717      -1.15152564       1.22053759 </v>
  </varray>
  <varray name="stress" >
   <v>      -0.24965346      10.01851757      -0.78854573 </v>
   <v>      10.01851770       0.93627457     -15.34398531 </v>
   <v>      -0.78854578     -15.34398528      -0.10115558 </v>
  </varray>
  <energy>
   <i name="e_fr_energy">    -43.08660724 </i>
   <i name="e_wo_entrp">    -43.08660724 </i>
   <i name="e_0_energy">      0.00000000 </i>
  </energy>
  <time name="totalsc">   84.84   85.24</time>
  <eigenvalues>
   <array>
    <dimension dim="1">band</dimension>
    <dimension dim="2">kpoint</dimension>
    <dimension dim="3">spin</dimension>
    <field>eigene</field>
    <field>occ</field>
    <set>
     <set comment="spin 1">
      <set comment="kpoint 1">
       <r>   -6.1606    1.0000 </r>
       <r>   -2.7645    1.0000 </r>
       <r>   -2.6274    1.0000 </r>
       <r>   -2.3987    1.0000 </r>
       <r>   -1.7815    1.0000 </r>
       <r>   -1.6691    1.0000 </r>
       <r>   -1.4211    1.0000 </r>
       <r>    2.5555    1.0000 </r>
       <r>    2.6007    1.0000 </r>
       <r>    2.7340    1.0000 </r>
       <r>    2.8386    1.0000 </r>
       <r>    2.8782    1.0000 </r>
       <r>    2.9247    1.0000 </r>
       <r>    5.0822    1.0000 </r>
       <r>    5.3387    1.0000 </r>
       <r>    5.6693    1.0000 </r>
       <r>    6.2250    0.0000 </r>
       <r>    6.3372    0.0000 </r>
       <r>    6.4636    0.0000 </r>
       <r>    6.6674    0.0000 </r>
       <r>    6.7707    0.0000 </r>
       <r>    6.8644    0.0000 </r>
       <r>    8.1623    0.0000 </r>
       <r>    8.2582    0.0000 </r>
      </set>
      <set comment="kpoint 2">
       <r>   -6.0266    1.0000 </r>
       <r>   -3.4749    1.0000 </r>
       <r>   -2.6197    1.0000 </r>
       <r>   -2.4204    1.0000 </r>
       <r>   -1.7293    1.0000 </r>
       <r>   -1.5415    1.0000 </r>
       <r>   -0.5848    1.0000 </r>
       <r>    2.1431    1.0000 </r>
       <r>    2.2364    1.0000 </r>
       <r>    2.7153    1.0000 </r>
       <r>    2.7776    1.0000 </r>
       <r>    2.8682    1.0000 </r>
       <r>    2.9407    1.0000 </r>
       <r>    4.3181    1.0000 </r>
       <r>    4.9756    1.0000 </r>
       <r>    5.4502    1.0000 </r>
       <r>    6.3170    0.0000 </r>
       <r>    6.7312    0.0000 </r>
       <r>    6.8842    0.0000 </r>
       <r>    7.1258    0.0000 </r>
       <r>    7.4253    0.0000 </r>
       <r>    7.5722    0.0000 </r>
       <r>    8.0237    0.0000 </r>
       <r>    8.5346    0.0000 </r>
      </set>
      <set comment="kpoint 3">
       <r>   -5.7605    1.0000 </r>
       <r>   -4.2114    1.0000 </r>
       <r>   -2.5299    1.0000 </r>
       <r>   -2.3619    1.0000 </r>
       <r>   -1.6962    1.0000 </r>
       <r>   -1.5237    1.0000 </r>
       <r>    0.4394    1.0000 </r>
       <r>    1.7957    1.0000 </r>
       <r>    1.8785    1.0000 </r>
       <r>    2.4072    1.0000 </r>
       <r>    2.4919    1.0000 </r>
       <r>    3.1072    1.0000 </r>
       <r>    3.1599    1.0000 </r>
       <r>    3.4373    1.0000 </r>
       <r>    4.4629    1.0000 </r>
       <r>    4.8204    1.0000 </r>
       <r>    6.4736    0.0000 </r>
       <r>    7.4191    0.0000 </r>
       <r>    7.6328    0.0000 </r>
       <r>    7.7838    0.0000 </r>
       <r>    7.8874    0.0000 </r>
       <r>    8.5301    0.0000 </r>
       <r>    8.7057    0.0000 </r>
       <r>    9.3118    0.0000 </r>
      </set>
      <set comment="kpoint 4">
       <r>   -5.3662    1.0000 </r>
       <r>   -4.8458    1.0000 </r>
       <r>   -2.4453    1.0000 </r>
       <r>   -2.3239    1.0000 </r>
       <r>   -1.6689    1.0000 </r>
       <r>   -1.5343    1.0000 </r>
       <r>    1.4442    1.0000 </r>
       <r>    1.6387    1.0000 </r>
       <r>    1.7185    1.0000 </r>
       <r>    2.1831    1.0000 </r>
       <r>    2.2348    1.0000 </r>
       <r>    2.4789    1.0000 </r>
       <r>    3.4979    1.0000 </r>
       <r>    3.5271    1.0000 </r>
       <r>    3.9565    1.0000 </r>
       <r>    4.1590    1.0000 </r>
       <r>    6.7453    0.0000 </r>
       <r>    7.0990    0.0000 </r>
       <r>    8.3660    0.0000 </r>
       <r>    8.8978    0.0000 </r>
       <r>    9.0409    0.0000 </r>
       <r>    9.2481    0.0000 </r>
       <r>    9.7556    0.0000 </r>
       <r>    9.9358    0.0000 </r>
      </set>
      <set comment="kpoint 5">
       <r>   -5.3699    1.0000 </r>
       <r>   -4.8404    1.0000 </r>
       <r>   -2.4344    1.0000 </r>
       <r>   -2.3323    1.0000 </r>
       <r>   -1.6675    1.0000 </r>
       <r>   -1.5437    1.0000 </r>
       <r>    1.4057    1.0000 </r>
       <r>    1.6681    1.0000 </r>
       <r>    1.6911    1.0000 </r>
       <r>    2.1731    1.0000 </r>
       <r>    2.2415    1.0000 </r>
       <r>    2.5498    1.0000 </r>
       <r>    3.5141    1.0000 </r>
       <r>    3.5932    1.0000 </r>
       <r>    3.9567    1.0000 </r>
       <r>    4.0463    1.0000 </r>
       <r>    6.7286    0.0000 </r>
       <r>    7.1207    0.0000 </r>
       <r>    8.3507    0.0000 </r>
       <r>    8.8191    0.0000 </r>
       <r>    9.0092    0.0000 </r>
       <r>    9.2344    0.0000 </r>
       <r>    9.8582    0.0000 </r>
       <r>    9.9928    0.0000 </r>
      </set>
      <set comment="kpoint 6">
       <r>   -5.7630    1.0000 </r>
       <r>   -4.2036    1.0000 </r>
       <r>   -2.5122    1.0000 </r>
       <r>   -2.3757    1.0000 </r>
       <r>   -1.6985    1.0000 </r>
       <r>   -1.5364    1.0000 </r>
       <r>    0.3948    1.0000 </r>
       <r>    1.8436    1.0000 </r>
       <r>    1.9241    1.0000 </r>
       <r>    2.3659    1.0000 </r>
       <r>    2.4541    1.0000 </r>
       <r>    3.1452    1.0000 </r>
       <r>    3.1787    1.0000 </r>
       <r>    3.5529    1.0000 </r>
       <r>    4.4649    1.0000 </r>
       <r>    4.6727    1.0000 </r>
       <r>    6.4596    0.0000 </r>
       <r>    7.4880    0.0000 </r>
       <r>    7.6035    0.0000 </r>
       <r>    7.6592    0.0000 </r>
       <r>    7.8326    0.0000 </r>
       <r>    8.6099    0.0000 </r>
       <r>    8.7576    0.0000 </r>
       <r>    9.3276    0.0000 </r>
      </set>
      <set comment="kpoint 7">
       <r>   -6.0281    1.0000 </r>
       <r>   -3.4629    1.0000 </r>
       <r>   -2.6032    1.0000 </r>
       <r>   -2.4405    1.0000 </r>
       <r>   -1.7341    1.0000 </r>
       <r>   -1.5382    1.0000 </r>
       <r>   -0.6222    1.0000 </r>
       <r>    2.2018    1.0000 </r>
       <r>    2.2964    1.0000 </r>
       <r>    2.6591    1.0000 </r>
       <r>    2.7225    1.0000 </r>
       <r>    2.8810    1.0000 </r>
       <r>    2.9689    1.0000 </r>
       <r>    4.4536    1.0000 </r>
       <r>    4.9779    1.0000 </r>
       <r>    5.2847    1.0000 </r>
       <r>    6.3000    0.0000 </r>
       <r>    6.7101    0.0000 </r>
       <r>    6.7991    0.0000 </r>
       <r>    7.0991    0.0000 </r>
       <r>    7.4875    0.0000 </r>
       <r>    7.6143    0.0000 </r>
       <r>    8.0421    0.0000 </r>
       <r>    8.5431    0.0000 </r>
      </set>
      <set comment="kpoint 8">
       <r>   -6.1611    1.0000 </r>
       <r>   -2.7595    1.0000 </r>
       <r>   -2.5773    1.0000 </r>
       <r>   -2.4591    1.0000 </r>
       <r>   -1.7772    1.0000 </r>
       <r>   -1.6193    1.0000 </r>
       <r>   -1.4803    1.0000 </r>
       <r>    2.6205    1.0000 </r>
       <r>    2.6455    1.0000 </r>
       <r>    2.7425    1.0000 </r>
       <r>    2.7713    1.0000 </r>
       <r>    2.8394    1.0000 </r>
       <r>    2.9308    1.0000 </r>
       <r>    5.2078    1.0000 </r>
       <r>    5.3507    1.0000 </r>
       <r>    5.5299    1.0000 </r>
       <r>    6.1954    0.0000 </r>
       <r>    6.3038    0.0000 </r>
       <r>    6.4384    0.0000 </r>
       <r>    6.6409    0.0000 </r>
       <r>    6.8019    0.0000 </r>
       <r>    6.9142    0.0000 </r>
       <r>    8.1367    0.0000 </r>
       <r>    8.2938    0.0000 </r>
      </set>
      <set comment="kpoint 9">
       <r>   -6.0273    1.0000 </r>
       <r>   -3.4574    1.0000 </r>
       <r>   -2.6675    1.0000 </r>
       <r>   -2.4026    1.0000 </r>
       <r>   -1.7429    1.0000 </r>
       <r>   -1.4891    1.0000 </r>
       <r>   -0.6244    1.0000 </r>
       <r>    2.1384    1.0000 </r>
       <r>    2.2998    1.0000 </r>
       <r>    2.6383    1.0000 </r>
       <r>    2.7974    1.0000 </r>
       <r>    2.8207    1.0000 </r>
       <r>    3.0104    1.0000 </r>
       <r>    4.3478    1.0000 </r>
       <r>    5.0592    1.0000 </r>
       <r>    5.3275    1.0000 </r>
       <r>    6.3428    0.0000 </r>
       <r>    6.6353    0.0000 </r>
       <r>    6.8923    0.0000 </r>
       <r>    7.0770    0.0000 </r>
       <r>    7.4284    0.0000 </r>
       <r>    7.6521    0.0000 </r>
       <r>    8.0414    0.0000 </r>
       <r>    8.5776    0.0000 </r>
      </set>
      <set comment="kpoint 10">
       <r>   -5.8940    1.0000 </r>
       <r>   -3.4562    1.0000 </r>
       <r>   -3.3111    1.0000 </r>
       <r>   -2.4620    1.0000 </r>
       <r>   -1.6779    1.0000 </r>
       <r>   -0.7500    1.0000 </r>
       <r>   -0.5514    1.0000 </r>
       <r>    1.7143    1.0000 </r>
       <r>    2.3484    1.0000 </r>
       <r>    2.4569    1.0000 </r>
       <r>    2.8169    1.0000 </r>
       <r>    2.8928    1.0000 </r>
       <r>    3.1286    1.0000 </r>
       <r>    3.5662    1.0000 </r>
       <r>    4.6788    1.0000 </r>
       <r>    5.5589    1.0000 </r>
       <r>    6.6748    0.0000 </r>
       <r>    6.7980    0.0000 </r>
       <r>    6.9143    0.0000 </r>
       <r>    7.7297    0.0000 </r>
       <r>    7.8445    0.0000 </r>
       <r>    8.2495    0.0000 </r>
       <r>    8.3896    0.0000 </r>
       <r>    8.5702    0.0000 </r>
      </set>
      <set comment="kpoint 11">
       <r>   -5.6301    1.0000 </r>
       <r>   -4.1178    1.0000 </r>
       <r>   -3.2157    1.0000 </r>
       <r>   -2.5384    1.0000 </r>
       <r>   -1.5781    1.0000 </r>
       <r>   -0.8061    1.0000 </r>
       <r>    0.3038    1.0000 </r>
       <r>    1.4684    1.0000 </r>
       <r>    1.9970    1.0000 </r>
       <r>    2.6429    1.0000 </r>
       <r>    2.7009    1.0000 </r>
       <r>    2.7584    1.0000 </r>
       <r>    3.1007    1.0000 </r>
       <r>    3.1723    1.0000 </r>
       <r>    4.1402    1.0000 </r>
       <r>    5.1864    1.0000 </r>
       <r>    7.0100    0.0000 </r>
       <r>    7.2169    0.0000 </r>
       <r>    7.7843    0.0000 </r>
       <r>    8.1445    0.0000 </r>
       <r>    8.2738    0.0000 </r>
       <r>    8.7817    0.0000 </r>
       <r>    8.8862    0.0000 </r>
       <r>    9.5402    0.0000 </r>
      </set>
      <set comment="kpoint 12">
       <r>   -5.2403    1.0000 </r>
       <r>   -4.7359    1.0000 </r>
       <r>   -3.0220    1.0000 </r>
       <r>   -2.7088    1.0000 </r>
       <r>   -1.3910    1.0000 </r>
       <r>   -0.9998    1.0000 </r>
       <r>    1.1783    1.0000 </r>
       <r>    1.4643    1.0000 </r>
       <r>    1.6862    1.0000 </r>
       <r>    1.9259    1.0000 </r>
       <r>    2.6351    1.0000 </r>
       <r>    2.8775    1.0000 </r>
       <r>    3.1033    1.0000 </r>
       <r>    3.5786    1.0000 </r>
       <r>    3.6933    1.0000 </r>
       <r>    4.5073    1.0000 </r>
       <r>    7.3301    0.0000 </r>
       <r>    7.6627    0.0000 </r>
       <r>    8.2427    0.0000 </r>
       <r>    8.8419    0.0000 </r>
       <r>    9.0398    0.0000 </r>
       <r>    9.4183    0.0000 </r>
       <r>    9.5030    0.0000 </r>
       <r>   10.1121    0.0000 </r>
      </set>
      <set comment="kpoint 13">
       <r>   -5.2501    1.0000 </r>
       <r>   -4.7223    1.0000 </r>
       <r>   -2.9400    1.0000 </r>
       <r>   -2.8157    1.0000 </r>
       <r>   -1.2259    1.0000 </r>
       <r>   -1.1525    1.0000 </r>
       <r>    1.0509    1.0000 </r>
       <r>    1.4943    1.0000 </r>
       <r>    1.6724    1.0000 </r>
       <r>    2.0858    1.0000 </r>
       <r>    2.7142    1.0000 </r>
       <r>    2.7868    1.0000 </r>
       <r>    3.1297    1.0000 </r>
       <r>    3.5662    1.0000 </r>
       <r>    3.8367    1.0000 </r>
       <r>    4.3152    1.0000 </r>
       <r>    7.2884    0.0000 </r>
       <r>    7.7144    0.0000 </r>
       <r>    8.1016    0.0000 </r>
       <r>    8.8220    0.0000 </r>
       <r>    9.0588    0.0000 </r>
       <r>    9.4313    0.0000 </r>
       <r>    9.5954    0.0000 </r>
       <r>    9.9360    0.0000 </r>
      </set>
      <set comment="kpoint 14">
       <r>   -5.6368    1.0000 </r>
       <r>   -4.1011    1.0000 </r>
       <r>   -3.1527    1.0000 </r>
       <r>   -2.6607    1.0000 </r>
       <r>   -1.4205    1.0000 </r>
       <r>   -0.9312    1.0000 </r>
       <r>    0.1920    1.0000 </r>
       <r>    1.5297    1.0000 </r>
       <r>    2.0190    1.0000 </r>
       <r>    2.6868    1.0000 </r>
       <r>    2.7504    1.0000 </r>
       <r>    2.9127    1.0000 </r>
       <r>    3.0014    1.0000 </r>
       <r>    3.2810    1.0000 </r>
       <r>    4.1297    1.0000 </r>
       <r>    4.9665    1.0000 </r>
       <r>    6.9651    0.0000 </r>
       <r>    7.0931    0.0000 </r>
       <r>    7.8071    0.0000 </r>
       <r>    8.1007    0.0000 </r>
       <r>    8.2675    0.0000 </r>
       <r>    8.7787    0.0000 </r>
       <r>    8.9049    0.0000 </r>
       <r>    9.5919    0.0000 </r>
      </set>
      <set comment="kpoint 15">
       <r>   -5.8978    1.0000 </r>
       <r>   -3.4671    1.0000 </r>
       <r>   -3.2290    1.0000 </r>
       <r>   -2.5701    1.0000 </r>
       <r>   -1.5564    1.0000 </r>
       <r>   -0.8366    1.0000 </r>
       <r>   -0.6333    1.0000 </r>
       <r>    1.7958    1.0000 </r>
       <r>    2.3944    1.0000 </r>
       <r>    2.4799    1.0000 </r>
       <r>    2.7836    1.0000 </r>
       <r>    2.9769    1.0000 </r>
       <r>    3.0542    1.0000 </r>
       <r>    3.7393    1.0000 </r>
       <r>    4.6741    1.0000 </r>
       <r>    5.3334    1.0000 </r>
       <r>    6.5423    0.0000 </r>
       <r>    6.7308    0.0000 </r>
       <r>    6.9322    0.0000 </r>
       <r>    7.6343    0.0000 </r>
       <r>    7.9283    0.0000 </r>
       <r>    8.2045    0.0000 </r>
       <r>    8.5901    0.0000 </r>
       <r>    8.6305    0.0000 </r>
      </set>
      <set comment="kpoint 16">
       <r>   -6.0285    1.0000 </r>
       <r>   -3.4527    1.0000 </r>
       <r>   -2.5735    1.0000 </r>
       <r>   -2.5088    1.0000 </r>
       <r>   -1.6425    1.0000 </r>
       <r>   -1.5841    1.0000 </r>
       <r>   -0.6517    1.0000 </r>
       <r>    2.2227    1.0000 </r>
       <r>    2.3087    1.0000 </r>
       <r>    2.6450    1.0000 </r>
       <r>    2.7152    1.0000 </r>
       <r>    2.8466    1.0000 </r>
       <r>    3.0136    1.0000 </r>
       <r>    4.5139    1.0000 </r>
       <r>    5.0562    1.0000 </r>
       <r>    5.1381    1.0000 </r>
       <r>    6.3277    0.0000 </r>
       <r>    6.6657    0.0000 </r>
       <r>    6.7320    0.0000 </r>
       <r>    7.0522    0.0000 </r>
       <r>    7.5674    0.0000 </r>
       <r>    7.6554    0.0000 </r>
       <r>    8.0309    0.0000 </r>
       <r>    8.6337    0.0000 </r>
      </set>
      <set comment="kpoint 17">
       <r>   -5.7619    1.0000 </r>
       <r>   -4.2011    1.0000 </r>
       <r>   -2.5844    1.0000 </r>
       <r>   -2.3349    1.0000 </r>
       <r>   -1.7203    1.0000 </r>
       <r>   -1.4609    1.0000 </r>
       <r>    0.3932    1.0000 </r>
       <r>    1.7779    1.0000 </r>
       <r>    1.9274    1.0000 </r>
       <r>    2.3540    1.0000 </r>
       <r>    2.5169    1.0000 </r>
       <r>    3.0632    1.0000 </r>
       <r>    3.2279    1.0000 </r>
       <r>    3.4903    1.0000 </r>
       <r>    4.5280    1.0000 </r>
       <r>    4.7051    1.0000 </r>
       <r>    6.4825    0.0000 </r>
       <r>    7.4305    0.0000 </r>
       <r>    7.5478    0.0000 </r>
       <r>    7.7408    0.0000 </r>
       <r>    7.8885    0.0000 </r>
       <r>    8.5524    0.0000 </r>
       <r>    8.7973    0.0000 </r>
       <r>    9.3315    0.0000 </r>
      </set>
      <set comment="kpoint 18">
       <r>   -5.6308    1.0000 </r>
       <r>   -4.1049    1.0000 </r>
       <r>   -3.2440    1.0000 </r>
       <r>   -2.5294    1.0000 </r>
       <r>   -1.5869    1.0000 </r>
       <r>   -0.7457    1.0000 </r>
       <r>    0.2498    1.0000 </r>
       <r>    1.4582    1.0000 </r>
       <r>    1.9984    1.0000 </r>
       <r>    2.6065    1.0000 </r>
       <r>    2.6808    1.0000 </r>
       <r>    2.8134    1.0000 </r>
       <r>    3.1152    1.0000 </r>
       <r>    3.1962    1.0000 </r>
       <r>    4.1286    1.0000 </r>
       <r>    5.1861    1.0000 </r>
       <r>    7.0586    0.0000 </r>
       <r>    7.1943    0.0000 </r>
       <r>    7.7433    0.0000 </r>
       <r>    8.0857    0.0000 </r>
       <r>    8.2600    0.0000 </r>
       <r>    8.8219    0.0000 </r>
       <r>    8.9699    0.0000 </r>
       <r>    9.5299    0.0000 </r>
      </set>
      <set comment="kpoint 19">
       <r>   -5.3729    1.0000 </r>
       <r>   -3.9850    1.0000 </r>
       <r>   -3.8378    1.0000 </r>
       <r>   -2.8418    1.0000 </r>
       <r>   -1.3360    1.0000 </r>
       <r>   -0.1388    1.0000 </r>
       <r>    0.0774    1.0000 </r>
       <r>    1.3594    1.0000 </r>
       <r>    1.9612    1.0000 </r>
       <r>    2.2109    1.0000 </r>
       <r>    2.2874    1.0000 </r>
       <r>    3.1374    1.0000 </r>
       <r>    3.2448    1.0000 </r>
       <r>    3.4949    1.0000 </r>
       <r>    3.6245    1.0000 </r>
       <r>    5.2641    1.0000 </r>
       <r>    7.1501    0.0000 </r>
       <r>    7.9278    0.0000 </r>
       <r>    8.0845    0.0000 </r>
       <r>    8.4447    0.0000 </r>
       <r>    8.8889    0.0000 </r>
       <r>    9.2519    0.0000 </r>
       <r>    9.3225    0.0000 </r>
       <r>    9.4330    0.0000 </r>
      </set>
      <set comment="kpoint 20">
       <r>   -4.9940    1.0000 </r>
       <r>   -4.5168    1.0000 </r>
       <r>   -3.6210    1.0000 </r>
       <r>   -3.2042    1.0000 </r>
       <r>   -1.0021    1.0000 </r>
       <r>   -0.4535    1.0000 </r>
       <r>    0.7175    1.0000 </r>
       <r>    1.2404    1.0000 </r>
       <r>    1.5061    1.0000 </r>
       <r>    1.8433    1.0000 </r>
       <r>    2.5595    1.0000 </r>
       <r>    3.0258    1.0000 </r>
       <r>    3.3286    1.0000 </r>
       <r>    3.5847    1.0000 </r>
       <r>    3.9084    1.0000 </r>
       <r>    4.8099    1.0000 </r>
       <r>    7.7462    0.0000 </r>
       <r>    8.2771    0.0000 </r>
       <r>    8.5404    0.0000 </r>
       <r>    8.6885    0.0000 </r>
       <r>    8.8543    0.0000 </r>
       <r>    9.1704    0.0000 </r>
       <r>    9.4573    0.0000 </r>
       <r>    9.9322    0.0000 </r>
      </set>
      <set comment="kpoint 21">
       <r>   -5.0101    1.0000 </r>
       <r>   -4.4966    1.0000 </r>
       <r>   -3.5540    1.0000 </r>
       <r>   -3.2908    1.0000 </r>
       <r>   -0.8305    1.0000 </r>
       <r>   -0.6171    1.0000 </r>
       <r>    0.5542    1.0000 </r>
       <r>    1.3611    1.0000 </r>
       <r>    1.5958    1.0000 </r>
       <r>    1.8192    1.0000 </r>
       <r>    2.5851    1.0000 </r>
       <r>    3.0068    1.0000 </r>
       <r>    3.4127    1.0000 </r>
       <r>    3.4840    1.0000 </r>
       <r>    4.1007    1.0000 </r>
       <r>    4.6038    1.0000 </r>
       <r>    7.6160    0.0000 </r>
       <r>    8.2258    0.0000 </r>
       <r>    8.5719    0.0000 </r>
       <r>    8.7666    0.0000 </r>
       <r>    8.8168    0.0000 </r>
       <r>    9.2501    0.0000 </r>
       <r>    9.4634    0.0000 </r>
       <r>    9.8906    0.0000 </r>
      </set>
      <set comment="kpoint 22">
       <r>   -5.3841    1.0000 </r>
       <r>   -3.9904    1.0000 </r>
       <r>   -3.7522    1.0000 </r>
       <r>   -2.9537    1.0000 </r>
       <r>   -1.1623    1.0000 </r>
       <r>   -0.2925    1.0000 </r>
       <r>   -0.0663    1.0000 </r>
       <r>    1.3962    1.0000 </r>
       <r>    2.1504    1.0000 </r>
       <r>    2.1901    1.0000 </r>
       <r>    2.3397    1.0000 </r>
       <r>    3.1556    1.0000 </r>
       <r>    3.4102    1.0000 </r>
       <r>    3.4397    1.0000 </r>
       <r>    3.6054    1.0000 </r>
       <r>    5.0435    1.0000 </r>
       <r>    7.0114    0.0000 </r>
       <r>    7.8796    0.0000 </r>
       <r>    8.0675    0.0000 </r>
       <r>    8.3807    0.0000 </r>
       <r>    8.9788    0.0000 </r>
       <r>    9.1667    0.0000 </r>
       <r>    9.3511    0.0000 </r>
       <r>    9.4664    0.0000 </r>
      </set>
      <set comment="kpoint 23">
       <r>   -5.6373    1.0000 </r>
       <r>   -4.0910    1.0000 </r>
       <r>   -3.1768    1.0000 </r>
       <r>   -2.6559    1.0000 </r>
       <r>   -1.4275    1.0000 </r>
       <r>   -0.8762    1.0000 </r>
       <r>    0.1458    1.0000 </r>
       <r>    1.5218    1.0000 </r>
       <r>    2.0047    1.0000 </r>
       <r>    2.6765    1.0000 </r>
       <r>    2.7631    1.0000 </r>
       <r>    2.9339    1.0000 </r>
       <r>    3.0246    1.0000 </r>
       <r>    3.2863    1.0000 </r>
       <r>    4.1101    1.0000 </r>
       <r>    4.9684    1.0000 </r>
       <r>    7.0164    0.0000 </r>
       <r>    7.0832    0.0000 </r>
       <r>    7.7124    0.0000 </r>
       <r>    8.0814    0.0000 </r>
       <r>    8.2524    0.0000 </r>
       <r>    8.8389    0.0000 </r>
       <r>    9.0086    0.0000 </r>
       <r>    9.4999    0.0000 </r>
      </set>
      <set comment="kpoint 24">
       <r>   -5.7641    1.0000 </r>
       <r>   -4.1959    1.0000 </r>
       <r>   -2.5061    1.0000 </r>
       <r>   -2.4275    1.0000 </r>
       <r>   -1.6205    1.0000 </r>
       <r>   -1.5587    1.0000 </r>
       <r>    0.3545    1.0000 </r>
       <r>    1.8477    1.0000 </r>
       <r>    1.9291    1.0000 </r>
       <r>    2.3778    1.0000 </r>
       <r>    2.4337    1.0000 </r>
       <r>    3.1205    1.0000 </r>
       <r>    3.2401    1.0000 </r>
       <r>    3.6101    1.0000 </r>
       <r>    4.4849    1.0000 </r>
       <r>    4.5866    1.0000 </r>
       <r>    6.4706    0.0000 </r>
       <r>    7.4085    0.0000 </r>
       <r>    7.5614    0.0000 </r>
       <r>    7.7181    0.0000 </r>
       <r>    7.7848    0.0000 </r>
       <r>    8.7069    0.0000 </r>
       <r>    8.7694    0.0000 </r>
       <r>    9.3647    0.0000 </r>
      </set>
      <set comment="kpoint 25">
       <r>   -5.3693    1.0000 </r>
       <r>   -4.8377    1.0000 </r>
       <r>   -2.5162    1.0000 </r>
       <r>   -2.2843    1.0000 </r>
       <r>   -1.7081    1.0000 </r>
       <r>   -1.4445    1.0000 </r>
       <r>    1.3907    1.0000 </r>
       <r>    1.5948    1.0000 </r>
       <r>    1.7285    1.0000 </r>
       <r>    2.1530    1.0000 </r>
       <r>    2.2878    1.0000 </r>
       <r>    2.5041    1.0000 </r>
       <r>    3.4722    1.0000 </r>
       <r>    3.6128    1.0000 </r>
       <r>    3.9736    1.0000 </r>
       <r>    4.1034    1.0000 </r>
       <r>    6.7448    0.0000 </r>
       <r>    7.1225    0.0000 </r>
       <r>    8.3267    0.0000 </r>
       <r>    8.8268    0.0000 </r>
       <r>    9.0621    0.0000 </r>
       <r>    9.2425    0.0000 </r>
       <r>    9.7649    0.0000 </r>
       <r>   10.0188    0.0000 </r>
      </set>
      <set comment="kpoint 26">
       <r>   -5.2425    1.0000 </r>
       <r>   -4.7260    1.0000 </r>
       <r>   -3.0604    1.0000 </r>
       <r>   -2.7014    1.0000 </r>
       <r>   -1.3933    1.0000 </r>
       <r>   -0.9229    1.0000 </r>
       <r>    1.1093    1.0000 </r>
       <r>    1.4322    1.0000 </r>
       <r>    1.6726    1.0000 </r>
       <r>    1.9297    1.0000 </r>
       <r>    2.6270    1.0000 </r>
       <r>    2.9027    1.0000 </r>
       <r>    3.1658    1.0000 </r>
       <r>    3.5440    1.0000 </r>
       <r>    3.6975    1.0000 </r>
       <r>    4.5247    1.0000 </r>
       <r>    7.3640    0.0000 </r>
       <r>    7.6775    0.0000 </r>
       <r>    8.2355    0.0000 </r>
       <r>    8.7937    0.0000 </r>
       <r>    9.0356    0.0000 </r>
       <r>    9.4386    0.0000 </r>
       <r>    9.4743    0.0000 </r>
       <r>   10.0253    0.0000 </r>
      </set>
      <set comment="kpoint 27">
       <r>   -4.9955    1.0000 </r>
       <r>   -4.5045    1.0000 </r>
       <r>   -3.6445    1.0000 </r>
       <r>   -3.2028    1.0000 </r>
       <r>   -0.9983    1.0000 </r>
       <r>   -0.3790    1.0000 </r>
       <r>    0.6447    1.0000 </r>
       <r>    1.2486    1.0000 </r>
       <r>    1.4926    1.0000 </r>
       <r>    1.7900    1.0000 </r>
       <r>    2.6166    1.0000 </r>
       <r>    3.0055    1.0000 </r>
       <r>    3.3331    1.0000 </r>
       <r>    3.6106    1.0000 </r>
       <r>    3.8988    1.0000 </r>
       <r>    4.8225    1.0000 </r>
       <r>    7.7240    0.0000 </r>
       <r>    8.2923    0.0000 </r>
       <r>    8.5206    0.0000 </r>
       <r>    8.7390    0.0000 </r>
       <r>    8.9927    0.0000 </r>
       <r>    9.2206    0.0000 </r>
       <r>    9.3072    0.0000 </r>
       <r>    9.8329    0.0000 </r>
      </set>
      <set comment="kpoint 28">
       <r>   -4.6393    1.0000 </r>
       <r>   -4.2531    1.0000 </r>
       <r>   -4.1084    1.0000 </r>
       <r>   -3.6841    1.0000 </r>
       <r>   -0.5561    1.0000 </r>
       <r>    0.0429    1.0000 </r>
       <r>    0.2656    1.0000 </r>
       <r>    0.6245    1.0000 </r>
       <r>    1.7181    1.0000 </r>
       <r>    2.0488    1.0000 </r>
       <r>    2.1444    1.0000 </r>
       <r>    2.5026    1.0000 </r>
       <r>    3.9856    1.0000 </r>
       <r>    4.0490    1.0000 </r>
       <r>    4.1415    1.0000 </r>
       <r>    4.7754    1.0000 </r>
       <r>    7.7403    0.0000 </r>
       <r>    8.1881    0.0000 </r>
       <r>    8.2883    0.0000 </r>
       <r>    8.3706    0.0000 </r>
       <r>    9.4204    0.0000 </r>
       <r>    9.5730    0.0000 </r>
       <r>    9.6982    0.0000 </r>
       <r>   10.0022    0.0000 </r>
      </set>
      <set comment="kpoint 29">
       <r>   -4.6603    1.0000 </r>
       <r>   -4.2566    1.0000 </r>
       <r>   -4.0213    1.0000 </r>
       <r>   -3.7520    1.0000 </r>
       <r>   -0.3887    1.0000 </r>
       <r>   -0.1316    1.0000 </r>
       <r>    0.1046    1.0000 </r>
       <r>    0.7951    1.0000 </r>
       <r>    1.7455    1.0000 </r>
       <r>    2.0106    1.0000 </r>
       <r>    2.1833    1.0000 </r>
       <r>    2.4829    1.0000 </r>
       <r>    3.9517    1.0000 </r>
       <r>    4.0376    1.0000 </r>
       <r>    4.3848    1.0000 </r>
       <r>    4.5668    1.0000 </r>
       <r>    7.6237    0.0000 </r>
       <r>    8.2037    0.0000 </r>
       <r>    8.2596    0.0000 </r>
       <r>    8.5144    0.0000 </r>
       <r>    9.3744    0.0000 </r>
       <r>    9.5578    0.0000 </r>
       <r>    9.7792    0.0000 </r>
       <r>    9.9503    0.0000 </r>
      </set>
      <set comment="kpoint 30">
       <r>   -5.0113    1.0000 </r>
       <r>   -4.4859    1.0000 </r>
       <r>   -3.5763    1.0000 </r>
       <r>   -3.2891    1.0000 </r>
       <r>   -0.8296    1.0000 </r>
       <r>   -0.5517    1.0000 </r>
       <r>    0.4986    1.0000 </r>
       <r>    1.3643    1.0000 </r>
       <r>    1.5878    1.0000 </r>
       <r>    1.7719    1.0000 </r>
       <r>    2.6341    1.0000 </r>
       <r>    2.9853    1.0000 </r>
       <r>    3.4167    1.0000 </r>
       <r>    3.5039    1.0000 </r>
       <r>    4.0910    1.0000 </r>
       <r>    4.6181    1.0000 </r>
       <r>    7.6006    0.0000 </r>
       <r>    8.2862    0.0000 </r>
       <r>    8.4783    0.0000 </r>
       <r>    8.8207    0.0000 </r>
       <r>    8.9728    0.0000 </r>
       <r>    9.1933    0.0000 </r>
       <r>    9.4563    0.0000 </r>
       <r>    9.7763    0.0000 </r>
      </set>
      <set comment="kpoint 31">
       <r>   -5.2518    1.0000 </r>
       <r>   -4.7139    1.0000 </r>
       <r>   -2.9787    1.0000 </r>
       <r>   -2.8095    1.0000 </r>
       <r>   -1.2324    1.0000 </r>
       <r>   -1.0764    1.0000 </r>
       <r>    0.9987    1.0000 </r>
       <r>    1.4670    1.0000 </r>
       <r>    1.6406    1.0000 </r>
       <r>    2.1004    1.0000 </r>
       <r>    2.7191    1.0000 </r>
       <r>    2.8161    1.0000 </r>
       <r>    3.1757    1.0000 </r>
       <r>    3.5252    1.0000 </r>
       <r>    3.8273    1.0000 </r>
       <r>    4.3428    1.0000 </r>
       <r>    7.3314    0.0000 </r>
       <r>    7.6885    0.0000 </r>
       <r>    8.1486    0.0000 </r>
       <r>    8.7814    0.0000 </r>
       <r>    9.0098    0.0000 </r>
       <r>    9.4240    0.0000 </r>
       <r>    9.6062    0.0000 </r>
       <r>    9.9093    0.0000 </r>
      </set>
      <set comment="kpoint 32">
       <r>   -5.3723    1.0000 </r>
       <r>   -4.8337    1.0000 </r>
       <r>   -2.4547    1.0000 </r>
       <r>   -2.3667    1.0000 </r>
       <r>   -1.6034    1.0000 </r>
       <r>   -1.5358    1.0000 </r>
       <r>    1.3563    1.0000 </r>
       <r>    1.6323    1.0000 </r>
       <r>    1.6864    1.0000 </r>
       <r>    2.1992    1.0000 </r>
       <r>    2.2333    1.0000 </r>
       <r>    2.5992    1.0000 </r>
       <r>    3.5774    1.0000 </r>
       <r>    3.5822    1.0000 </r>
       <r>    3.8952    1.0000 </r>
       <r>    4.0627    1.0000 </r>
       <r>    6.7308    0.0000 </r>
       <r>    7.1338    0.0000 </r>
       <r>    8.3285    0.0000 </r>
       <r>    8.8578    0.0000 </r>
       <r>    8.8941    0.0000 </r>
       <r>    9.2315    0.0000 </r>
       <r>    9.9708    0.0000 </r>
       <r>   10.0116    0.0000 </r>
      </set>
      <set comment="kpoint 33">
       <r>   -5.3676    1.0000 </r>
       <r>   -4.8401    1.0000 </r>
       <r>   -2.5145    1.0000 </r>
       <r>   -2.2897    1.0000 </r>
       <r>   -1.7077    1.0000 </r>
       <r>   -1.4375    1.0000 </r>
       <r>    1.4225    1.0000 </r>
       <r>    1.6015    1.0000 </r>
       <r>    1.6825    1.0000 </r>
       <r>    2.1525    1.0000 </r>
       <r>    2.3071    1.0000 </r>
       <r>    2.4785    1.0000 </r>
       <r>    3.4461    1.0000 </r>
       <r>    3.6178    1.0000 </r>
       <r>    3.9989    1.0000 </r>
       <r>    4.1106    1.0000 </r>
       <r>    6.7532    0.0000 </r>
       <r>    7.1127    0.0000 </r>
       <r>    8.3498    0.0000 </r>
       <r>    8.8518    0.0000 </r>
       <r>    9.0634    0.0000 </r>
       <r>    9.2528    0.0000 </r>
       <r>    9.7089    0.0000 </r>
       <r>   10.0016    0.0000 </r>
      </set>
      <set comment="kpoint 34">
       <r>   -5.2465    1.0000 </r>
       <r>   -4.7210    1.0000 </r>
       <r>   -2.9589    1.0000 </r>
       <r>   -2.8421    1.0000 </r>
       <r>   -1.1804    1.0000 </r>
       <r>   -1.0999    1.0000 </r>
       <r>    1.0696    1.0000 </r>
       <r>    1.4343    1.0000 </r>
       <r>    1.6230    1.0000 </r>
       <r>    2.0118    1.0000 </r>
       <r>    2.7456    1.0000 </r>
       <r>    2.7918    1.0000 </r>
       <r>    3.0809    1.0000 </r>
       <r>    3.6519    1.0000 </r>
       <r>    3.8777    1.0000 </r>
       <r>    4.3118    1.0000 </r>
       <r>    7.3280    0.0000 </r>
       <r>    7.7027    0.0000 </r>
       <r>    8.1552    0.0000 </r>
       <r>    8.8559    0.0000 </r>
       <r>    9.1380    0.0000 </r>
       <r>    9.3628    0.0000 </r>
       <r>    9.5216    0.0000 </r>
       <r>    9.9211    0.0000 </r>
      </set>
      <set comment="kpoint 35">
       <r>   -5.0046    1.0000 </r>
       <r>   -4.4944    1.0000 </r>
       <r>   -3.5614    1.0000 </r>
       <r>   -3.3146    1.0000 </r>
       <r>   -0.7533    1.0000 </r>
       <r>   -0.5983    1.0000 </r>
       <r>    0.5653    1.0000 </r>
       <r>    1.2718    1.0000 </r>
       <r>    1.5494    1.0000 </r>
       <r>    1.7858    1.0000 </r>
       <r>    2.5396    1.0000 </r>
       <r>    3.0700    1.0000 </r>
       <r>    3.4449    1.0000 </r>
       <r>    3.5123    1.0000 </r>
       <r>    4.1218    1.0000 </r>
       <r>    4.5925    1.0000 </r>
       <r>    7.6059    0.0000 </r>
       <r>    8.2410    0.0000 </r>
       <r>    8.6534    0.0000 </r>
       <r>    8.7690    0.0000 </r>
       <r>    8.8491    0.0000 </r>
       <r>    9.3379    0.0000 </r>
       <r>    9.4950    0.0000 </r>
       <r>    9.7816    0.0000 </r>
      </set>
      <set comment="kpoint 36">
       <r>   -4.6515    1.0000 </r>
       <r>   -4.2574    1.0000 </r>
       <r>   -4.0224    1.0000 </r>
       <r>   -3.7690    1.0000 </r>
       <r>   -0.3147    1.0000 </r>
       <r>   -0.1224    1.0000 </r>
       <r>    0.1108    1.0000 </r>
       <r>    0.7183    1.0000 </r>
       <r>    1.6870    1.0000 </r>
       <r>    2.0006    1.0000 </r>
       <r>    2.1618    1.0000 </r>
       <r>    2.5449    1.0000 </r>
       <r>    3.9594    1.0000 </r>
       <r>    4.0626    1.0000 </r>
       <r>    4.3918    1.0000 </r>
       <r>    4.5548    1.0000 </r>
       <r>    7.6256    0.0000 </r>
       <r>    8.2067    0.0000 </r>
       <r>    8.2378    0.0000 </r>
       <r>    8.5178    0.0000 </r>
       <r>    9.4230    0.0000 </r>
       <r>    9.6369    0.0000 </r>
       <r>    9.9025    0.0000 </r>
       <r>    9.9586    0.0000 </r>
      </set>
      <set comment="kpoint 37">
       <r>   -4.6328    1.0000 </r>
       <r>   -4.2519    1.0000 </r>
       <r>   -4.1079    1.0000 </r>
       <r>   -3.7025    1.0000 </r>
       <r>   -0.4924    1.0000 </r>
       <r>    0.0489    1.0000 </r>
       <r>    0.2680    1.0000 </r>
       <r>    0.5728    1.0000 </r>
       <r>    1.6708    1.0000 </r>
       <r>    2.0285    1.0000 </r>
       <r>    2.1237    1.0000 </r>
       <r>    2.5582    1.0000 </r>
       <r>    3.9925    1.0000 </r>
       <r>    4.0610    1.0000 </r>
       <r>    4.1566    1.0000 </r>
       <r>    4.7642    1.0000 </r>
       <r>    7.7430    0.0000 </r>
       <r>    8.1899    0.0000 </r>
       <r>    8.2749    0.0000 </r>
       <r>    8.3713    0.0000 </r>
       <r>    9.5071    0.0000 </r>
       <r>    9.5988    0.0000 </r>
       <r>    9.7904    0.0000 </r>
       <r>   10.0369    0.0000 </r>
      </set>
      <set comment="kpoint 38">
       <r>   -4.9901    1.0000 </r>
       <r>   -4.5132    1.0000 </r>
       <r>   -3.6235    1.0000 </r>
       <r>   -3.2345    1.0000 </r>
       <r>   -0.9259    1.0000 </r>
       <r>   -0.4432    1.0000 </r>
       <r>    0.7267    1.0000 </r>
       <r>    1.1906    1.0000 </r>
       <r>    1.4538    1.0000 </r>
       <r>    1.8015    1.0000 </r>
       <r>    2.5166    1.0000 </r>
       <r>    3.0885    1.0000 </r>
       <r>    3.3530    1.0000 </r>
       <r>    3.5967    1.0000 </r>
       <r>    3.9364    1.0000 </r>
       <r>    4.7989    1.0000 </r>
       <r>    7.7413    0.0000 </r>
       <r>    8.2552    0.0000 </r>
       <r>    8.6452    0.0000 </r>
       <r>    8.7304    0.0000 </r>
       <r>    8.8611    0.0000 </r>
       <r>    9.3041    0.0000 </r>
       <r>    9.3963    0.0000 </r>
       <r>    9.8334    0.0000 </r>
[...]
       <r>   -4.1213    1.0000 </r>
       <r>   -3.7204    1.0000 </r>
       <r>   -0.4006    1.0000 </r>
       <r>    0.0362    1.0000 </r>
       <r>    0.1047    1.0000 </r>
       <r>    0.6486    1.0000 </r>
       <r>    1.6639    1.0000 </r>
       <r>    2.0351    1.0000 </r>
       <r>    2.0704    1.0000 </r>
       <r>    2.5877    1.0000 </r>
       <r>    4.0059    1.0000 </r>
       <r>    4.1590    1.0000 </r>
       <r>    4.1969    1.0000 </r>
       <r>    4.6483    1.0000 </r>
       <r>    7.6873    0.0000 </r>
       <r>    8.2309    0.0000 </r>
       <r>    8.2941    0.0000 </r>
       <r>    8.3413    0.0000 </r>
       <r>    9.5109    0.0000 </r>
       <r>    9.6394    0.0000 </r>
       <r>    9.8247    0.0000 </r>
       <r>   10.0292    0.0000 </r>
      </set>
      <set comment="kpoint 254">
       <r>   -5.0158    1.0000 </r>
       <r>   -4.4676    1.0000 </r>
       <r>   -3.6258    1.0000 </r>
       <r>   -3.2653    1.0000 </r>
       <r>   -0.8236    1.0000 </r>
       <r>   -0.4937    1.0000 </r>
       <r>    0.6144    1.0000 </r>
       <r>    1.2592    1.0000 </r>
       <r>    1.4531    1.0000 </r>
       <r>    1.7588    1.0000 </r>
       <r>    2.5020    1.0000 </r>
       <r>    3.1097    1.0000 </r>
       <r>    3.4353    1.0000 </r>
       <r>    3.5656    1.0000 </r>
       <r>    4.0285    1.0000 </r>
       <r>    4.6964    1.0000 </r>
       <r>    7.6900    0.0000 </r>
       <r>    8.2676    0.0000 </r>
       <r>    8.6501    0.0000 </r>
       <r>    8.7601    0.0000 </r>
       <r>    8.8246    0.0000 </r>
       <r>    9.2248    0.0000 </r>
       <r>    9.5623    0.0000 </r>
       <r>    9.8149    0.0000 </r>
      </set>
      <set comment="kpoint 255">
       <r>   -5.2597    1.0000 </r>
       <r>   -4.6975    1.0000 </r>
       <r>   -3.0184    1.0000 </r>
       <r>   -2.8053    1.0000 </r>
       <r>   -1.2014    1.0000 </r>
       <r>   -1.0432    1.0000 </r>
       <r>    1.1204    1.0000 </r>
       <r>    1.4323    1.0000 </r>
       <r>    1.5945    1.0000 </r>
       <r>    1.9133    1.0000 </r>
       <r>    2.7535    1.0000 </r>
       <r>    2.8585    1.0000 </r>
       <r>    2.9988    1.0000 </r>
       <r>    3.6287    1.0000 </r>
       <r>    3.8504    1.0000 </r>
       <r>    4.4229    1.0000 </r>
       <r>    7.3495    0.0000 </r>
       <r>    7.7537    0.0000 </r>
       <r>    8.1753    0.0000 </r>
       <r>    8.8458    0.0000 </r>
       <r>    9.1513    0.0000 </r>
       <r>    9.3543    0.0000 </r>
       <r>    9.4302    0.0000 </r>
       <r>   10.0147    0.0000 </r>
      </set>
      <set comment="kpoint 256">
       <r>   -5.3834    1.0000 </r>
       <r>   -4.8158    1.0000 </r>
       <r>   -2.5031    1.0000 </r>
       <r>   -2.3526    1.0000 </r>
       <r>   -1.6237    1.0000 </r>
       <r>   -1.4758    1.0000 </r>
       <r>    1.4576    1.0000 </r>
       <r>    1.6053    1.0000 </r>
       <r>    1.6530    1.0000 </r>
       <r>    2.2023    1.0000 </r>
       <r>    2.3115    1.0000 </r>
       <r>    2.4259    1.0000 </r>
       <r>    3.3437    1.0000 </r>
       <r>    3.5990    1.0000 </r>
       <r>    4.0424    1.0000 </r>
       <r>    4.1666    1.0000 </r>
       <r>    6.7578    0.0000 </r>
       <r>    7.1150    0.0000 </r>
       <r>    8.3668    0.0000 </r>
       <r>    8.9140    0.0000 </r>
       <r>    9.0679    0.0000 </r>
       <r>    9.2269    0.0000 </r>
       <r>    9.7347    0.0000 </r>
       <r>    9.8733    0.0000 </r>
      </set>
     </set>
    </set>
   </array>
  </eigenvalues>
  <separator name="orbital magnetization" >
   <v name="MAGDIPOLOUT">      0.00000000      0.00000000      0.00000000</v>
  </separator>
  <dos>
   <i name="efermi">      5.74904669 </i>
   <total>
    <array>
     <dimension dim="1">gridpoints</dimension>
     <dimension dim="2">spin</dimension>
     <field>energy</field>
     <field>total</field>
     <field>integrated</field>
     <set>
      <set comment="spin 1">
       <r>    -6.9788     0.0000     0.0000 </r>
       <r>    -6.9188     0.0000     0.0000 </r>
       <r>    -6.8589     0.0000     0.0000 </r>
       <r>    -6.7989     0.0000     0.0000 </r>
       <r>    -6.7389     0.0000     0.0000 </r>
       <r>    -6.6790     0.0000     0.0000 </r>
       <r>    -6.6190     0.0000     0.0000 </r>
       <r>    -6.5590     0.0000     0.0000 </r>
       <r>    -6.4991     0.0000     0.0000 </r>
       <r>    -6.4391     0.0000     0.0000 </r>
       <r>    -6.3791     0.0000     0.0000 </r>
       <r>    -6.3192     0.0000     0.0000 </r>
       <r>    -6.2592     0.0000     0.0000 </r>
       <r>    -6.1992     0.0000     0.0000 </r>
       <r>    -6.1393     0.5187     0.0311 </r>
       <r>    -6.0793     0.0000     0.0313 </r>
       <r>    -6.0193     1.6184     0.1283 </r>
       <r>    -5.9594    -0.0550     0.1250 </r>
       <r>    -5.8994     0.2512     0.1401 </r>
       <r>    -5.8394     1.3122     0.2187 </r>
       <r>    -5.7795    -0.0167     0.2177 </r>
       <r>    -5.7195     2.1012     0.3437 </r>
       <r>    -5.6595     0.0063     0.3441 </r>
       <r>    -5.5996     3.1200     0.5312 </r>
       <r>    -5.5396     0.0012     0.5313 </r>
       <r>    -5.4796     1.5595     0.6248 </r>
       <r>    -5.4197     0.0006     0.6250 </r>
       <r>    -5.3597     3.1654     0.8148 </r>
       <r>    -5.2997    -0.0403     0.8125 </r>
       <r>    -5.2398     4.2183     1.0655 </r>
       <r>    -5.1798     0.4702     1.0938 </r>
       <r>    -5.1199     1.2397     1.1681 </r>
       <r>    -5.0599     0.3239     1.1875 </r>
       <r>    -4.9999     2.6610     1.3471 </r>
       <r>    -4.9400     0.9864     1.4063 </r>
       <r>    -4.8800     2.6633     1.5660 </r>
       <r>    -4.8200     1.5459     1.6588 </r>
       <r>    -4.7601     0.4773     1.6876 </r>
       <r>    -4.7001     2.8180     1.8566 </r>
       <r>    -4.6401     3.1441     2.0452 </r>
       <r>    -4.5802     1.9589     2.1628 </r>
       <r>    -4.5202     1.5651     2.2567 </r>
       <r>    -4.4602     2.8240     2.4260 </r>
       <r>    -4.4003     2.2850     2.5632 </r>
       <r>    -4.3403     2.6028     2.7193 </r>
       <r>    -4.2803    -0.0297     2.7176 </r>
       <r>    -4.2204     1.9451     2.8342 </r>
       <r>    -4.1604     4.0908     3.0796 </r>
       <r>    -4.1004     3.1405     3.2680 </r>
       <r>    -4.0405     3.9508     3.5050 </r>
       <r>    -3.9805     4.0534     3.7482 </r>
       <r>    -3.9205     2.8263     3.9178 </r>
       <r>    -3.8606     2.2346     4.0519 </r>
       <r>    -3.8006     1.6303     4.1496 </r>
       <r>    -3.7406     2.8636     4.3214 </r>
       <r>    -3.6807     4.3934     4.5849 </r>
       <r>    -3.6207     4.4023     4.8491 </r>
       <r>    -3.5607     3.7542     5.0743 </r>
       <r>    -3.5008     1.6265     5.1719 </r>
       <r>    -3.4408     2.8449     5.3425 </r>
       <r>    -3.3808     2.0926     5.4682 </r>
       <r>    -3.3209     1.9790     5.5869 </r>
       <r>    -3.2609     4.0403     5.8292 </r>
       <r>    -3.2009     5.9828     6.1880 </r>
       <r>    -3.1410     3.4436     6.3946 </r>
       <r>    -3.0810     1.8457     6.5054 </r>
       <r>    -3.0210     2.1657     6.6353 </r>
       <r>    -2.9611     2.3695     6.7774 </r>
       <r>    -2.9011     0.9739     6.8359 </r>
       <r>    -2.8411     0.6828     6.8768 </r>
       <r>    -2.7812     1.4617     6.9645 </r>
       <r>    -2.7212     1.3863     7.0476 </r>
       <r>    -2.6612     2.0055     7.1679 </r>
       <r>    -2.6013     2.5192     7.3190 </r>
       <r>    -2.5413     2.6647     7.4789 </r>
       <r>    -2.4813     3.2206     7.6721 </r>
       <r>    -2.4214     2.2626     7.8078 </r>
       <r>    -2.3614     1.5798     7.9027 </r>
       <r>    -2.3014     1.0963     7.9684 </r>
       <r>    -2.2415     0.5261     8.0000 </r>
       <r>    -2.1815     0.0000     8.0000 </r>
       <r>    -2.1215     0.0000     8.0000 </r>
       <r>    -2.0616     0.0000     8.0000 </r>
       <r>    -2.0016     0.0000     8.0000 </r>
       <r>    -1.9416     0.0000     8.0000 </r>
       <r>    -1.8817     0.0000     8.0000 </r>
       <r>    -1.8217     0.0005     8.0000 </r>
       <r>    -1.7617     0.3902     8.0234 </r>
       <r>    -1.7018     1.4751     8.1119 </r>
       <r>    -1.6418     2.1171     8.2389 </r>
       <r>    -1.5818     2.9122     8.4136 </r>
       <r>    -1.5219     2.7548     8.5789 </r>
       <r>    -1.4619     3.5621     8.7926 </r>
       <r>    -1.4019     1.6694     8.8928 </r>
       <r>    -1.3420     1.9218     9.0080 </r>
       <r>    -1.2820     1.8195     9.1172 </r>
       <r>    -1.2220     2.9635     9.2949 </r>
       <r>    -1.1621     2.5527     9.4480 </r>
       <r>    -1.1021     4.8789     9.7407 </r>
       <r>    -1.0421     4.5948    10.0163 </r>
       <r>    -0.9822     3.8956    10.2501 </r>
       <r>    -0.9222     5.7167    10.5929 </r>
       <r>    -0.8622     4.6551    10.8721 </r>
       <r>    -0.8023     5.2850    11.1892 </r>
       <r>    -0.7423     3.0975    11.3752 </r>
       <r>    -0.6823     1.9241    11.4907 </r>
       <r>    -0.6224     3.1294    11.6784 </r>
       <r>    -0.5624     4.3409    11.9388 </r>
       <r>    -0.5024     2.0398    12.0613 </r>
       <r>    -0.4425     2.7197    12.2244 </r>
       <r>    -0.3825     2.6165    12.3814 </r>
       <r>    -0.3225     2.1318    12.5093 </r>
       <r>    -0.2626     1.5218    12.6006 </r>
       <r>    -0.2026     1.1879    12.6719 </r>
       <r>    -0.1426     0.4736    12.7003 </r>
       <r>    -0.0827     1.5448    12.7929 </r>
       <r>    -0.0227     1.4558    12.8803 </r>
       <r>     0.0373     1.7360    12.9844 </r>
       <r>     0.0972     3.3358    13.1845 </r>
       <r>     0.1572     2.5898    13.3399 </r>
       <r>     0.2172     1.5964    13.4357 </r>
       <r>     0.2771     2.6923    13.5972 </r>
       <r>     0.3371     0.9835    13.6562 </r>
       <r>     0.3971     0.6916    13.6977 </r>
       <r>     0.4570     0.8829    13.7507 </r>
       <r>     0.5170     0.6406    13.7891 </r>
       <r>     0.5770     1.2378    13.8633 </r>
       <r>     0.6369     1.9461    13.9801 </r>
       <r>     0.6969     2.5671    14.1341 </r>
       <r>     0.7568     1.6799    14.2349 </r>
       <r>     0.8168     1.1511    14.3039 </r>
       <r>     0.8768     0.6631    14.3437 </r>
       <r>     0.9367     0.0000    14.3438 </r>
       <r>     0.9967     0.1716    14.3540 </r>
       <r>     1.0567     0.7490    14.3990 </r>
       <r>     1.1166     0.9261    14.4545 </r>
       <r>     1.1766     0.8514    14.5056 </r>
       <r>     1.2366     1.2530    14.5808 </r>
       <r>     1.2965     1.8936    14.6943 </r>
       <r>     1.3565     2.0716    14.8186 </r>
       <r>     1.4165     3.0558    15.0020 </r>
       <r>     1.4764     5.9477    15.3588 </r>
       <r>     1.5364     3.8510    15.5899 </r>
       <r>     1.5964     1.7678    15.6960 </r>
       <r>     1.6563     3.0955    15.8816 </r>
       <r>     1.7163     4.5694    16.1557 </r>
       <r>     1.7763     5.0948    16.4613 </r>
       <r>     1.8362     4.2881    16.7185 </r>
       <r>     1.8962     5.2234    17.0318 </r>
       <r>     1.9562     4.7677    17.3177 </r>
       <r>     2.0161     4.6736    17.5982 </r>
       <r>     2.0761     3.6511    17.8173 </r>
       <r>     2.1361     3.3149    18.0161 </r>
       <r>     2.1960     4.9819    18.3149 </r>
       <r>     2.2560     4.2485    18.5698 </r>
       <r>     2.3160     5.0698    18.8739 </r>
       <r>     2.3759     3.8201    19.1031 </r>
       <r>     2.4359     3.1596    19.2928 </r>
       <r>     2.4959     3.2764    19.4893 </r>
       <r>     2.5558     5.6524    19.8283 </r>
       <r>     2.6158     4.4258    20.0938 </r>
       <r>     2.6758     6.4950    20.4834 </r>
       <r>     2.7357     5.7002    20.8253 </r>
       <r>     2.7957     6.4946    21.2150 </r>
       <r>     2.8557     6.1600    21.5845 </r>
       <r>     2.9156     4.7197    21.8676 </r>
       <r>     2.9756     2.8578    22.0391 </r>
       <r>     3.0356     7.2579    22.4744 </r>
       <r>     3.0955     6.1085    22.8409 </r>
       <r>     3.1555     7.5779    23.2955 </r>
       <r>     3.2155     6.8448    23.7060 </r>
       <r>     3.2754     4.5316    23.9780 </r>
       <r>     3.3354     4.2217    24.2313 </r>
       <r>     3.3954     4.0215    24.4725 </r>
       <r>     3.4553     5.5533    24.8056 </r>
       <r>     3.5153     6.4560    25.1929 </r>
       <r>     3.5753     7.4885    25.6421 </r>
       <r>     3.6352     8.3166    26.1410 </r>
       <r>     3.6952     5.9495    26.4980 </r>
       <r>     3.7552     3.2004    26.6901 </r>
       <r>     3.8151     3.2202    26.8832 </r>
       <r>     3.8751     3.9098    27.1177 </r>
       <r>     3.9351     3.6481    27.3365 </r>
       <r>     3.9950     4.7830    27.6234 </r>
       <r>     4.0550     5.3898    27.9467 </r>
       <r>     4.1150     6.1275    28.3143 </r>
       <r>     4.1749     6.5395    28.7065 </r>
       <r>     4.2349     4.8144    28.9953 </r>
       <r>     4.2949     4.7883    29.2825 </r>
       <r>     4.3548     3.6497    29.5015 </r>
       <r>     4.4148     2.3458    29.6423 </r>
       <r>     4.4748     2.9915    29.8217 </r>
       <r>     4.5347     3.8726    30.0540 </r>
       <r>     4.5947     4.4864    30.3232 </r>
       <r>     4.6547     2.9874    30.5025 </r>
       <r>     4.7146     4.2506    30.7575 </r>
       <r>     4.7746     3.0178    30.9386 </r>
       <r>     4.8346     2.4276    31.0842 </r>
       <r>     4.8945     1.3322    31.1641 </r>
       <r>     4.9545     1.4604    31.2517 </r>
       <r>     5.0145     1.8322    31.3616 </r>
       <r>     5.0744     1.7354    31.4657 </r>
       <r>     5.1344     1.7856    31.5728 </r>
       <r>     5.1944     1.5122    31.6635 </r>
       <r>     5.2543     1.0034    31.7237 </r>
       <r>     5.3143     1.4584    31.8111 </r>
       <r>     5.3743     0.9389    31.8674 </r>
       <r>     5.4342     0.3123    31.8862 </r>
       <r>     5.4942     0.7196    31.9294 </r>
       <r>     5.5542     0.4015    31.9535 </r>
       <r>     5.6141     0.3837    31.9766 </r>
       <r>     5.6741     0.2141    31.9894 </r>
       <r>     5.7341     0.1767    32.0000 </r>
       <r>     5.7940     0.0000    32.0000 </r>
       <r>     5.8540     0.0000    32.0000 </r>
       <r>     5.9140     0.0000    32.0000 </r>
       <r>     5.9739     0.0000    32.0000 </r>
       <r>     6.0339     0.0000    32.0000 </r>
       <r>     6.0939     0.0000    32.0000 </r>
       <r>     6.1538     0.0000    32.0000 </r>
       <r>     6.2138     0.1240    32.0074 </r>
       <r>     6.2738     0.1375    32.0157 </r>
       <r>     6.3337     1.0841    32.0807 </r>
       <r>     6.3937     0.8845    32.1337 </r>
       <r>     6.4537     0.4962    32.1635 </r>
       <r>     6.5136     1.9183    32.2786 </r>
       <r>     6.5736     0.5808    32.3134 </r>
       <r>     6.6336     0.9441    32.3701 </r>
       <r>     6.6935     1.1654    32.4400 </r>
       <r>     6.7535     2.9354    32.6161 </r>
       <r>     6.8134     2.5410    32.7687 </r>
       <r>     6.8734     1.8490    32.8796 </r>
       <r>     6.9334     1.3686    32.9618 </r>
       <r>     6.9933     2.1441    33.0903 </r>
       <r>     7.0533     3.1643    33.2802 </r>
       <r>     7.1133     4.5415    33.5526 </r>
       <r>     7.1732     3.8180    33.7816 </r>
       <r>     7.2332     1.9556    33.8990 </r>
       <r>     7.2932     1.8737    34.0114 </r>
       <r>     7.3531     3.4607    34.2190 </r>
       <r>     7.4131     4.2740    34.4754 </r>
       <r>     7.4731     4.8638    34.7671 </r>
       <r>     7.5330     3.4400    34.9736 </r>
       <r>     7.5930     2.9875    35.1529 </r>
       <r>     7.6530     4.5631    35.4266 </r>
       <r>     7.7129     8.2278    35.9201 </r>
       <r>     7.7729     8.3476    36.4209 </r>
       <r>     7.8329     7.0805    36.8457 </r>
       <r>     7.8928     7.3341    37.2856 </r>
       <r>     7.9528     4.7603    37.5712 </r>
       <r>     8.0128     3.1841    37.7624 </r>
       <r>     8.0727     5.5411    38.0948 </r>
       <r>     8.1327     5.8182    38.4437 </r>
       <r>     8.1927     4.8955    38.7375 </r>
       <r>     8.2526     5.2028    39.0496 </r>
       <r>     8.3126     7.9322    39.5253 </r>
       <r>     8.3726     4.2740    39.7818 </r>
       <r>     8.4325     2.9446    39.9585 </r>
       <r>     8.4925     3.0367    40.1407 </r>
       <r>     8.5525     4.3412    40.4011 </r>
       <r>     8.6124     4.4840    40.6701 </r>
       <r>     8.6724     3.7212    40.8933 </r>
       <r>     8.7324     3.8634    41.1251 </r>
       <r>     8.7923     6.9460    41.5417 </r>
       <r>     8.8523     8.2890    42.0390 </r>
       <r>     8.9123     9.9406    42.6353 </r>
       <r>     8.9722     7.5381    43.0876 </r>
       <r>     9.0322     6.4430    43.4741 </r>
       <r>     9.0922     5.9454    43.8309 </r>
       <r>     9.1521     4.6206    44.1080 </r>
       <r>     9.2121     3.4749    44.3165 </r>
       <r>     9.2721     5.9918    44.6759 </r>
       <r>     9.3320     5.7865    45.0231 </r>
       <r>     9.3920     4.4709    45.2914 </r>
       <r>     9.4520     6.5139    45.6821 </r>
       <r>     9.5119     6.1993    46.0540 </r>
       <r>     9.5719     5.3635    46.3758 </r>
       <r>     9.6319     3.2531    46.5710 </r>
       <r>     9.6918     2.0405    46.6934 </r>
       <r>     9.7518     3.4481    46.9002 </r>
       <r>     9.8118     3.6517    47.1193 </r>
       <r>     9.8717     3.4685    47.3274 </r>
       <r>     9.9317     2.9058    47.5017 </r>
       <r>     9.9917     2.9548    47.6789 </r>
       <r>    10.0516     2.9657    47.8568 </r>
       <r>    10.1116     1.7939    47.9645 </r>
       <r>    10.1716     0.3779    47.9871 </r>
       <r>    10.2315     0.2144    48.0000 </r>
       <r>    10.2915     0.0000    48.0000 </r>
       <r>    10.3515     0.0000    48.0000 </r>
       <r>    10.4114     0.0000    48.0000 </r>
       <r>    10.4714     0.0000    48.0000 </r>
       <r>    10.5314     0.0000    48.0000 </r>
       <r>    10.5913     0.0000    48.0000 </r>
       <r>    10.6513     0.0000    48.0000 </r>
       <r>    10.7113     0.0000    48.0000 </r>
       <r>    10.7712     0.0000    48.0000 </r>
       <r>    10.8312     0.0000    48.0000 </r>
       <r>    10.8912     0.0000    48.0000 </r>
       <r>    10.9511     0.0000    48.0000 </r>
       <r>    11.0111     0.0000    48.0000 </r>
      </set>
     </set>
    </array>
   </total>
  </dos>
 </calculation>
 <structure name="finalpos" >
  <crystal>
   <varray name="basis" >
    <v>       5.46906415       0.00000000       0.00000000 </v>
    <v>       0.00000000       5.46906415       0.00000000 </v>
    <v>       0.00000000       0.00000000       5.46906415 </v>
   </varray>
   <i name="volume">    163.58333295 </i>
   <varray name="rec_basis" >
    <v>       0.18284664       0.00000000       0.00000000 </v>
    <v>       0.00000000       0.18284664       0.00000000 </v>
    <v>       0.00000000       0.00000000       0.18284664 </v>
   </varray>
  </crystal>
  <varray name="positions" >
   <v>       0.15634041       0.00399078       0.11967558 </v>
   <v>       0.40005299       0.27291730       0.34586601 </v>
   <v>       0.65747090       0.49448779       0.07813399 </v>
   <v>       0.89228036       0.74710451       0.33711448 </v>
   <v>       0.62919187       0.00893128       0.59156178 </v>
   <v>       0.91348232       0.23125143       0.83792999 </v>
   <v>       0.13384464       0.51121210       0.58563191 </v>
   <v>       0.40046674       0.76709901       0.83218961 </v>
  </varray>
 </structure>
</modeling>
