<?xml version="1.0" encoding="ISO-8859-1"?>
<modeling>
 <generator>
  <i name="program" type="string">vasp </i>
  <i name="version" type="string">5.4.1  </i>
  <i name="subversion" type="string">24Jun15 (build Jul  8 2015 13:29:37) complex                          parallel </i>
  <i name="platform" type="string">FX10FRT </i>
  <i name="date" type="string">2016 02 20 </i>
  <i name="time" type="string">07:11:52 </i>
 </generator>
 <incar>
  <i type="string" name="PREC">accurate</i>
  <i type="string" name="ALGO"> Normal</i>
  <i type="int" name="ISPIN">     1</i>
  <i type="int" name="IBRION">    -1</i>
  <i name="EDIFF">      0.00010000</i>
  <i type="int" name="NSW">     0</i>
  <i type="int" name="ISIF">     2</i>
  <i name="ENCUT">    400.00000000</i>
  <i type="int" name="ISMEAR">     2</i>
  <i name="SIGMA">      0.10000000</i>
  <i type="int" name="NWRITE">     1</i>
  <v type="int" name="KPOINT_BSE">    -1     0     0     0</v>
 </incar>
 <kpoints>
  <generation param="Monkhorst-Pack">
   <v type="int" name="divisions">      13       13       13 </v>
   <v name="usershift">      0.00000000       0.00000000       0.00000000 </v>
   <v name="genvec1">      0.07692308       0.00000000       0.00000000 </v>
   <v name="genvec2">      0.00000000       0.07692308       0.00000000 </v>
   <v name="genvec3">      0.00000000       0.00000000       0.07692308 </v>
   <v name="shift">      0.00000000       0.00000000       0.00000000 </v>
  </generation>
  <varray name="kpointlist" >
   <v>       0.00000000       0.00000000       0.00000000 </v>
   <v>       0.07692308       0.00000000       0.00000000 </v>
   <v>       0.15384615       0.00000000       0.00000000 </v>
   <v>       0.23076923       0.00000000       0.00000000 </v>
   <v>       0.30769231       0.00000000       0.00000000 </v>
   <v>       0.38461538       0.00000000       0.00000000 </v>
   <v>       0.46153846       0.00000000       0.00000000 </v>
   <v>       0.07692308       0.07692308       0.00000000 </v>
   <v>       0.15384615       0.07692308       0.00000000 </v>
   <v>       0.23076923       0.07692308       0.00000000 </v>
   <v>       0.30769231       0.07692308       0.00000000 </v>
   <v>       0.38461538       0.07692308       0.00000000 </v>
   <v>       0.46153846       0.07692308       0.00000000 </v>
   <v>       0.15384615       0.15384615       0.00000000 </v>
   <v>       0.23076923       0.15384615       0.00000000 </v>
   <v>       0.30769231       0.15384615       0.00000000 </v>
   <v>       0.38461538       0.15384615       0.00000000 </v>
   <v>       0.46153846       0.15384615       0.00000000 </v>
   <v>       0.23076923       0.23076923       0.00000000 </v>
   <v>       0.30769231       0.23076923       0.00000000 </v>
   <v>       0.38461538       0.23076923       0.00000000 </v>
   <v>       0.46153846       0.23076923       0.00000000 </v>
   <v>       0.30769231       0.30769231       0.00000000 </v>
   <v>       0.38461538       0.30769231       0.00000000 </v>
   <v>       0.46153846       0.30769231       0.00000000 </v>
   <v>       0.38461538       0.38461538       0.00000000 </v>
   <v>       0.46153846       0.38461538       0.00000000 </v>
   <v>       0.46153846       0.46153846       0.00000000 </v>
   <v>       0.07692308       0.07692308       0.07692308 </v>
   <v>       0.15384615       0.07692308       0.07692308 </v>
   <v>       0.23076923       0.07692308       0.07692308 </v>
   <v>       0.30769231       0.07692308       0.07692308 </v>
   <v>       0.38461538       0.07692308       0.07692308 </v>
   <v>       0.46153846       0.07692308       0.07692308 </v>
   <v>       0.15384615       0.15384615       0.07692308 </v>
   <v>       0.23076923       0.15384615       0.07692308 </v>
   <v>       0.30769231       0.15384615       0.07692308 </v>
   <v>       0.38461538       0.15384615       0.07692308 </v>
   <v>       0.46153846       0.15384615       0.07692308 </v>
   <v>       0.23076923       0.23076923       0.07692308 </v>
   <v>       0.30769231       0.23076923       0.07692308 </v>
   <v>       0.38461538       0.23076923       0.07692308 </v>
   <v>       0.46153846       0.23076923       0.07692308 </v>
   <v>       0.30769231       0.30769231       0.07692308 </v>
   <v>       0.38461538       0.30769231       0.07692308 </v>
   <v>       0.46153846       0.30769231       0.07692308 </v>
   <v>       0.38461538       0.38461538       0.07692308 </v>
   <v>       0.46153846       0.38461538       0.07692308 </v>
   <v>       0.46153846       0.46153846       0.07692308 </v>
   <v>       0.15384615       0.15384615       0.15384615 </v>
   <v>       0.23076923       0.15384615       0.15384615 </v>
   <v>       0.30769231       0.15384615       0.15384615 </v>
   <v>       0.38461538       0.15384615       0.15384615 </v>
   <v>       0.46153846       0.15384615       0.15384615 </v>
   <v>       0.23076923       0.23076923       0.15384615 </v>
   <v>       0.30769231       0.23076923       0.15384615 </v>
   <v>       0.38461538       0.23076923       0.15384615 </v>
   <v>       0.46153846       0.23076923       0.15384615 </v>
   <v>       0.30769231       0.30769231       0.15384615 </v>
   <v>       0.38461538       0.30769231       0.15384615 </v>
   <v>       0.46153846       0.30769231       0.15384615 </v>
   <v>       0.38461538       0.38461538       0.15384615 </v>
   <v>       0.46153846       0.38461538       0.15384615 </v>
   <v>       0.46153846       0.46153846       0.15384615 </v>
   <v>       0.23076923       0.23076923       0.23076923 </v>
   <v>       0.30769231       0.23076923       0.23076923 </v>
   <v>       0.38461538       0.23076923       0.23076923 </v>
   <v>       0.46153846       0.23076923       0.23076923 </v>
   <v>       0.30769231       0.30769231       0.23076923 </v>
   <v>       0.38461538       0.30769231       0.23076923 </v>
   <v>       0.46153846       0.30769231       0.23076923 </v>
   <v>       0.38461538       0.38461538       0.23076923 </v>
   <v>       0.46153846       0.38461538       0.23076923 </v>
   <v>       0.46153846       0.46153846       0.23076923 </v>
   <v>       0.30769231       0.30769231       0.30769231 </v>
   <v>       0.38461538       0.30769231       0.30769231 </v>
   <v>       0.46153846       0.30769231       0.30769231 </v>
   <v>       0.38461538       0.38461538       0.30769231 </v>
   <v>       0.46153846       0.38461538       0.30769231 </v>
   <v>       0.46153846       0.46153846       0.30769231 </v>
   <v>       0.38461538       0.38461538       0.38461538 </v>
   <v>       0.46153846       0.38461538       0.38461538 </v>
   <v>       0.46153846       0.46153846       0.38461538 </v>
   <v>       0.46153846       0.46153846       0.46153846 </v>
  </varray>
  <varray name="weights" >
   <v>       0.00045517 </v>
   <v>       0.00273100 </v>
   <v>       0.00273100 </v>
   <v>       0.00273100 </v>
   <v>       0.00273100 </v>
   <v>       0.00273100 </v>
   <v>       0.00273100 </v>
   <v>       0.00546199 </v>
   <v>       0.01092399 </v>
   <v>       0.01092399 </v>
   <v>       0.01092399 </v>
   <v>       0.01092399 </v>
   <v>       0.01092399 </v>
   <v>       0.00546199 </v>
   <v>       0.01092399 </v>
   <v>       0.01092399 </v>
   <v>       0.01092399 </v>
   <v>       0.01092399 </v>
   <v>       0.00546199 </v>
   <v>       0.01092399 </v>
   <v>       0.01092399 </v>
   <v>       0.01092399 </v>
   <v>       0.00546199 </v>
   <v>       0.01092399 </v>
   <v>       0.01092399 </v>
   <v>       0.00546199 </v>
   <v>       0.01092399 </v>
   <v>       0.00546199 </v>
   <v>       0.00364133 </v>
   <v>       0.01092399 </v>
   <v>       0.01092399 </v>
   <v>       0.01092399 </v>
   <v>       0.01092399 </v>
   <v>       0.01092399 </v>
   <v>       0.01092399 </v>
   <v>       0.02184797 </v>
   <v>       0.02184797 </v>
   <v>       0.02184797 </v>
   <v>       0.02184797 </v>
   <v>       0.01092399 </v>
   <v>       0.02184797 </v>
   <v>       0.02184797 </v>
   <v>       0.02184797 </v>
   <v>       0.01092399 </v>
   <v>       0.02184797 </v>
   <v>       0.02184797 </v>
   <v>       0.01092399 </v>
   <v>       0.02184797 </v>
   <v>       0.01092399 </v>
   <v>       0.00364133 </v>
   <v>       0.01092399 </v>
   <v>       0.01092399 </v>
   <v>       0.01092399 </v>
   <v>       0.01092399 </v>
   <v>       0.01092399 </v>
   <v>       0.02184797 </v>
   <v>       0.02184797 </v>
   <v>       0.02184797 </v>
   <v>       0.01092399 </v>
   <v>       0.02184797 </v>
   <v>       0.02184797 </v>
   <v>       0.01092399 </v>
   <v>       0.02184797 </v>
   <v>       0.01092399 </v>
   <v>       0.00364133 </v>
   <v>       0.01092399 </v>
   <v>       0.01092399 </v>
   <v>       0.01092399 </v>
   <v>       0.01092399 </v>
   <v>       0.02184797 </v>
   <v>       0.02184797 </v>
   <v>       0.01092399 </v>
   <v>       0.02184797 </v>
   <v>       0.01092399 </v>
   <v>       0.00364133 </v>
   <v>       0.01092399 </v>
   <v>       0.01092399 </v>
   <v>       0.01092399 </v>
   <v>       0.02184797 </v>
   <v>       0.01092399 </v>
   <v>       0.00364133 </v>
   <v>       0.01092399 </v>
   <v>       0.01092399 </v>
   <v>       0.00364133 </v>
  </varray>
 </kpoints>
 <parameters>
  <separator name="general" >
   <i type="string" name="SYSTEM">unknown system</i>
   <i type="logical" name="LCOMPAT"> F  </i>
  </separator>
  <separator name="electronic" >
   <i type="string" name="PREC">accura</i>
   <i name="ENMAX">    400.00000000</i>
   <i name="ENAUG">    322.06900000</i>
   <i name="EDIFF">      0.00010000</i>
   <i type="int" name="IALGO">    38</i>
   <i type="int" name="IWAVPR">    10</i>
   <i type="int" name="NBANDS">    16</i>
   <i name="NELECT">     16.00000000</i>
   <i type="int" name="TURBO">     0</i>
   <i type="int" name="IRESTART">     0</i>
   <i type="int" name="NREBOOT">     0</i>
   <i type="int" name="NMIN">     0</i>
   <i name="EREF">      0.00000000</i>
   <separator name="electronic smearing" >
    <i type="int" name="ISMEAR">     2</i>
    <i name="SIGMA">      0.10000000</i>
    <i name="KSPACING">      0.50000000</i>
    <i type="logical" name="KGAMMA"> T  </i>
   </separator>
   <separator name="electronic projectors" >
    <i type="logical" name="LREAL"> F  </i>
    <v name="ROPT">      0.00000000</v>
    <i type="int" name="LMAXPAW">  -100</i>
    <i type="int" name="LMAXMIX">     2</i>
    <i type="logical" name="NLSPLINE"> F  </i>
   </separator>
   <separator name="electronic startup" >
    <i type="int" name="ISTART">     0</i>
    <i type="int" name="ICHARG">     2</i>
    <i type="int" name="INIWAV">     1</i>
   </separator>
   <separator name="electronic spin" >
    <i type="int" name="ISPIN">     1</i>
    <i type="logical" name="LNONCOLLINEAR"> F  </i>
    <v name="MAGMOM">      1.00000000      1.00000000      1.00000000      1.00000000</v>
    <i name="NUPDOWN">     -1.00000000</i>
    <i type="logical" name="LSORBIT"> F  </i>
    <v name="SAXIS">      0.00000000      0.00000000      1.00000000</v>
    <i type="logical" name="LSPIRAL"> F  </i>
    <v name="QSPIRAL">      0.00000000      0.00000000      0.00000000</v>
    <i type="logical" name="LZEROZ"> F  </i>
   </separator>
   <separator name="electronic exchange-correlation" >
    <i type="logical" name="LASPH"> F  </i>
    <i type="logical" name="LMETAGGA"> F  </i>
   </separator>
   <separator name="electronic convergence" >
    <i type="int" name="NELM">    60</i>
    <i type="int" name="NELMDL">    -5</i>
    <i type="int" name="NELMIN">     2</i>
    <i name="ENINI">    400.00000000</i>
    <separator name="electronic convergence detail" >
     <i type="logical" name="LDIAG"> T  </i>
     <i type="logical" name="LSUBROT"> F  </i>
     <i name="WEIMIN">      0.00000000</i>
     <i name="EBREAK">      0.00000156</i>
     <i name="DEPER">      0.30000000</i>
     <i type="int" name="NRMM">     4</i>
     <i name="TIME">      0.40000000</i>
    </separator>
   </separator>
   <separator name="electronic mixer" >
    <i name="AMIX">      0.40000000</i>
    <i name="BMIX">      1.00000000</i>
    <i name="AMIN">      0.10000000</i>
    <i name="AMIX_MAG">      1.60000000</i>
    <i name="BMIX_MAG">      1.00000000</i>
    <separator name="electronic mixer details" >
     <i type="int" name="IMIX">     4</i>
     <i type="logical" name="MIXFIRST"> F  </i>
     <i type="int" name="MAXMIX">   -45</i>
     <i name="WC">    100.00000000</i>
     <i type="int" name="INIMIX">     1</i>
     <i type="int" name="MIXPRE">     1</i>
     <i type="int" name="MREMOVE">     5</i>
    </separator>
   </separator>
   <separator name="electronic dipolcorrection" >
    <i type="logical" name="LDIPOL"> F  </i>
    <i type="logical" name="LMONO"> F  </i>
    <i type="int" name="IDIPOL">     0</i>
    <i name="EPSILON">      1.00000000</i>
    <v name="DIPOL">   -100.00000000   -100.00000000   -100.00000000</v>
    <i name="EFIELD">      0.00000000</i>
   </separator>
  </separator>
  <separator name="grids" >
   <i type="int" name="NGX">    28</i>
   <i type="int" name="NGY">    28</i>
   <i type="int" name="NGZ">    28</i>
   <i type="int" name="NGXF">    56</i>
   <i type="int" name="NGYF">    56</i>
   <i type="int" name="NGZF">    56</i>
   <i type="logical" name="ADDGRID"> F  </i>
  </separator>
  <separator name="ionic" >
   <i type="int" name="NSW">     0</i>
   <i type="int" name="IBRION">    -1</i>
   <i type="int" name="ISIF">     2</i>
   <i name="PSTRESS">      0.00000000</i>
   <i name="EDIFFG">      0.00100000</i>
   <i type="int" name="NFREE">     0</i>
   <i name="POTIM">      0.50000000</i>
   <i name="SMASS">     -3.00000000</i>
   <i name="SCALEE">      1.00000000</i>
  </separator>
  <separator name="ionic md" >
   <i name="TEBEG">      0.00010000</i>
   <i name="TEEND">      0.00010000</i>
   <i type="int" name="NBLOCK">     1</i>
   <i type="int" name="KBLOCK">     1</i>
   <i type="int" name="NPACO">   256</i>
   <i name="APACO">     16.00000000</i>
  </separator>
  <separator name="symmetry" >
   <i type="int" name="ISYM">     2</i>
   <i name="SYMPREC">      0.00001000</i>
  </separator>
  <separator name="dos" >
   <i type="logical" name="LORBIT"> F  </i>
   <v name="RWIGS">     -1.00000000</v>
   <i type="int" name="NEDOS">   301</i>
   <i name="EMIN">     10.00000000</i>
   <i name="EMAX">    -10.00000000</i>
   <i name="EFERMI">      0.00000000</i>
  </separator>
  <separator name="writing" >
   <i type="int" name="NWRITE">     1</i>
   <i type="logical" name="LWAVE"> T  </i>
   <i type="logical" name="LCHARG"> T  </i>
   <i type="logical" name="LPARD"> F  </i>
   <i type="logical" name="LVTOT"> F  </i>
   <i type="logical" name="LVHAR"> F  </i>
   <i type="logical" name="LELF"> F  </i>
   <i type="logical" name="LOPTICS"> F  </i>
   <v name="STM">      0.00000000      0.00000000      0.00000000      0.00000000      0.00000000      0.00000000      0.00000000</v>
  </separator>
  <separator name="performance" >
   <i type="int" name="NPAR">     8</i>
   <i type="int" name="NSIM">     4</i>
   <i type="int" name="NBLK">    -1</i>
   <i type="logical" name="LPLANE"> T  </i>
   <i type="logical" name="LSCALAPACK"> T  </i>
   <i type="logical" name="LSCAAWARE"> F  </i>
   <i type="logical" name="LSCALU"> F  </i>
   <i type="logical" name="LASYNC"> F  </i>
   <i type="logical" name="LORBITALREAL"> F  </i>
  </separator>
  <separator name="miscellaneous" >
   <i type="int" name="IDIOT">     3</i>
   <i type="logical" name="LMUSIC"> F  </i>
   <v name="POMASS">     28.08500000</v>
   <v name="DARWINR">      0.00000000</v>
   <v name="DARWINV">      1.00000000</v>
   <i type="logical" name="LCORR"> T  </i>
  </separator>
  <i type="logical" name="GGA_COMPAT"> T  </i>
  <i type="logical" name="LBERRY"> F  </i>
  <i type="int" name="ICORELEVEL">     0</i>
  <i type="logical" name="LDAU"> F  </i>
  <i type="int" name="I_CONSTRAINED_M">     0</i>
  <separator name="electronic exchange-correlation" >
   <i type="string" name="GGA">--</i>
   <i type="int" name="VOSKOWN">     0</i>
   <i type="logical" name="LHFCALC"> F  </i>
   <i type="string" name="PRECFOCK"></i>
   <i type="logical" name="LSYMGRAD"> F  </i>
   <i type="logical" name="LHFONE"> F  </i>
   <i type="logical" name="LRHFCALC"> F  </i>
   <i type="logical" name="LTHOMAS"> F  </i>
   <i type="logical" name="LMODELHF"> F  </i>
   <i name="ENCUT4O">     -1.00000000</i>
   <i type="int" name="EXXOEP">     0</i>
   <i type="int" name="FOURORBIT">     0</i>
   <i name="AEXX">      0.00000000</i>
   <i name="HFALPHA">      0.00000000</i>
   <i name="MCALPHA">      0.00000000</i>
   <i name="ALDAX">      1.00000000</i>
   <i name="AGGAX">      1.00000000</i>
   <i name="ALDAC">      1.00000000</i>
   <i name="AGGAC">      1.00000000</i>
   <i type="int" name="NKREDX">     1</i>
   <i type="int" name="NKREDY">     1</i>
   <i type="int" name="NKREDZ">     1</i>
   <i type="logical" name="SHIFTRED"> F  </i>
   <i type="logical" name="ODDONLY"> F  </i>
   <i type="logical" name="EVENONLY"> F  </i>
   <i type="int" name="LMAXFOCK">     0</i>
   <i type="int" name="NMAXFOCKAE">     0</i>
   <i type="logical" name="LFOCKAEDFT"> F  </i>
   <i name="HFSCREEN">      0.00000000</i>
   <i name="HFSCREENC">      0.00000000</i>
   <i type="int" name="NBANDSGWLOW">     0</i>
  </separator>
  <separator name="vdW DFT" >
   <i type="logical" name="LUSE_VDW"> F  </i>
   <i name="Zab_VDW">     -0.84910000</i>
   <i name="PARAM1">      0.12340000</i>
   <i name="PARAM2">      1.00000000</i>
   <i name="PARAM3">      0.00000000</i>
  </separator>
  <separator name="model GW" >
   <i type="int" name="MODEL_GW">     0</i>
   <i name="MODEL_EPS0">      8.12941956</i>
   <i name="MODEL_ALPHA">      1.00000000</i>
  </separator>
  <separator name="linear response parameters" >
   <i type="logical" name="LEPSILON"> F  </i>
   <i type="logical" name="LRPA"> F  </i>
   <i type="logical" name="LNABLA"> F  </i>
   <i type="logical" name="LVEL"> F  </i>
   <i type="int" name="KINTER">     0</i>
   <i name="CSHIFT">      0.10000000</i>
   <i name="OMEGAMAX">     -1.00000000</i>
   <i name="DEG_THRESHOLD">      0.00200000</i>
  </separator>
  <separator name="orbital magnetization" >
   <i type="logical" name="NUCIND"> F  </i>
   <v name="MAGPOS">      0.00000000      0.00000000      0.00000000</v>
   <i type="logical" name="LNICSALL"> T  </i>
   <i type="logical" name="ORBITALMAG"> F  </i>
   <i type="logical" name="LMAGBLOCH"> F  </i>
   <i type="logical" name="LCHIMAG"> F  </i>
   <i type="logical" name="LGAUGE"> T  </i>
   <i type="int" name="MAGATOM">     0</i>
   <v name="MAGDIPOL">      0.00000000      0.00000000      0.00000000</v>
   <v name="AVECCONST">      0.00000000      0.00000000      0.00000000</v>
  </separator>
  <separator name="response functions" >
   <i type="logical" name="LADDER"> F  </i>
   <i type="logical" name="LFXC"> F  </i>
   <i type="logical" name="LHARTREE"> T  </i>
   <i type="int" name="IBSE">     0</i>
   <v type="int" name="KPOINT">    -1     0     0     0</v>
   <i type="logical" name="LTCTE"> F  </i>
   <i type="logical" name="LTETE"> F  </i>
   <i type="logical" name="LTRIPLET"> F  </i>
   <i type="logical" name="LFXCEPS"> F  </i>
   <i type="logical" name="LFXHEG"> F  </i>
   <i type="int" name="NATURALO">     0</i>
   <i type="logical" name="L2ORDER"> F  </i>
   <i type="logical" name="LUSEW"> F  </i>
   <i name="ENCUTGW">     -2.00000000</i>
   <i name="ENCUTGWSOFT">     -2.00000000</i>
   <i name="ENCUTLF">     -1.00000000</i>
   <i type="int" name="LMAXMP2">    -1</i>
   <i name="SCISSOR">      0.00000000</i>
   <i type="int" name="NOMEGA">     0</i>
   <i type="int" name="NOMEGAR">     0</i>
   <i type="int" name="NBANDSGW">    -1</i>
   <i type="int" name="NBANDSO">    -1</i>
   <i type="int" name="NBANDSV">    -1</i>
   <i type="int" name="NELM">     1</i>
   <i type="int" name="NELMHF">     1</i>
   <i type="int" name="DIM">     3</i>
   <i type="int" name="ANTIRES">     0</i>
   <i name="OMEGAMAX">    -30.00000000</i>
   <i name="OMEGAMIN">    -30.00000000</i>
   <i name="OMEGATL">   -200.00000000</i>
   <i type="int" name="OMEGAGRID">     0</i>
   <i name="CSHIFT">     -0.10000000</i>
   <i type="logical" name="SELFENERGY"> F  </i>
   <i type="logical" name="LSPECTRAL"> F  </i>
   <i type="logical" name="LSPECTRALGW"> F  </i>
   <i type="logical" name="LSINGLES"> F  </i>
   <i type="logical" name="LFERMIGW"> F  </i>
   <i type="logical" name="ODDONLYGW"> F  </i>
   <i type="logical" name="EVENONLYGW"> F  </i>
   <i type="int" name="NKREDLFX">     1</i>
   <i type="int" name="NKREDLFY">     1</i>
   <i type="int" name="NKREDLFZ">     1</i>
   <i type="int" name="MAXMEM">  1800</i>
   <i type="int" name="TELESCOPE">     0</i>
   <i type="int" name="TAUPAR">     1</i>
   <i type="int" name="OMEGAPAR">    -1</i>
   <i name="LAMBDA">      1.00000000</i>
  </separator>
  <separator name="External order field" >
   <i name="OFIELD_KAPPA">      0.00000000</i>
   <v name="OFIELD_K">      0.00000000      0.00000000      0.00000000</v>
   <i name="OFIELD_Q6_NEAR">      0.00000000</i>
   <i name="OFIELD_Q6_FAR">      0.00000000</i>
   <i name="OFIELD_A">      0.00000000</i>
  </separator>
 </parameters>
 <atominfo>
  <atoms>       4 </atoms>
  <types>       1 </types>
  <array name="atoms" >
   <dimension dim="1">ion</dimension>
   <field type="string">element</field>
   <field type="int">atomtype</field>
   <set>
    <rc><c>Si</c><c>   1</c></rc>
    <rc><c>Si</c><c>   1</c></rc>
    <rc><c>Si</c><c>   1</c></rc>
    <rc><c>Si</c><c>   1</c></rc>
   </set>
  </array>
  <array name="atomtypes" >
   <dimension dim="1">type</dimension>
   <field type="int">atomspertype</field>
   <field type="string">element</field>
   <field>mass</field>
   <field>valence</field>
   <field type="string">pseudopotential</field>
   <set>
    <rc><c>   4</c><c>Si</c><c>     28.08500000</c><c>      4.00000000</c><c>  PAW_PBE Si 05Jan2001                  </c></rc>
   </set>
  </array>
 </atominfo>
 <structure name="initialpos" >
  <crystal>
   <varray name="basis" >
    <v>       3.78433371       0.00000000       0.00000000 </v>
    <v>       0.00000000       3.78433371       0.00000000 </v>
    <v>       0.00000000       0.00000000       3.78433371 </v>
   </varray>
   <i name="volume">     54.19613038 </i>
   <varray name="rec_basis" >
    <v>       0.26424731       0.00000000       0.00000000 </v>
    <v>       0.00000000       0.26424731       0.00000000 </v>
    <v>       0.00000000       0.00000000       0.26424731 </v>
   </varray>
  </crystal>
  <varray name="positions" >
   <v>       0.00000000       0.00000000       0.00000000 </v>
   <v>       0.50000000       0.50000000       0.00000000 </v>
   <v>       0.50000000       0.00000000       0.50000000 </v>
   <v>       0.00000000       0.50000000       0.50000000 </v>
  </varray>
 </structure>
 <calculation>
  <scstep>
   <time name="dav">    0.93    0.98</time>
   <time name="total">    0.99    1.04</time>
   <energy>
    <i name="alphaZ">      9.93816512 </i>
    <i name="ewald">   -558.26821903 </i>
    <i name="hartreedc">     -1.88252855 </i>
    <i name="XCdc">    -34.51362393 </i>
    <i name="pawpsdc">    352.49519846 </i>
    <i name="pawaedc">   -282.12207116 </i>
    <i name="eentropy">      0.00070046 </i>
    <i name="bandstr">    116.44157813 </i>
    <i name="atom">    412.26298491 </i>
    <i name="e_fr_energy">     14.35218441 </i>
    <i name="e_wo_entrp">     14.35148394 </i>
    <i name="e_0_energy">     14.35200929 </i>
   </energy>
  </scstep>
  <scstep>
   <time name="dav">    1.16    1.17</time>
   <time name="total">    1.18    1.20</time>
   <energy>
    <i name="e_fr_energy">    -18.58439113 </i>
    <i name="e_wo_entrp">    -18.58501526 </i>
    <i name="e_0_energy">    -18.58454716 </i>
   </energy>
  </scstep>
  <scstep>
   <time name="dav">    1.09    1.10</time>
   <time name="total">    1.11    1.12</time>
   <energy>
    <i name="e_fr_energy">    -19.56234995 </i>
    <i name="e_wo_entrp">    -19.56281476 </i>
    <i name="e_0_energy">    -19.56246615 </i>
   </energy>
  </scstep>
  <scstep>
   <time name="dav">    1.08    1.09</time>
   <time name="total">    1.09    1.11</time>
   <energy>
    <i name="e_fr_energy">    -19.56666456 </i>
    <i name="e_wo_entrp">    -19.56712661 </i>
    <i name="e_0_energy">    -19.56678007 </i>
   </energy>
  </scstep>
  <scstep>
   <time name="dav">    1.09    1.10</time>
   <time name="total">    1.15    1.18</time>
   <energy>
    <i name="e_fr_energy">    -19.56668875 </i>
    <i name="e_wo_entrp">    -19.56715078 </i>
    <i name="e_0_energy">    -19.56680426 </i>
   </energy>
  </scstep>
  <scstep>
   <time name="dav">    1.03    1.03</time>
   <time name="total">    1.08    1.11</time>
   <energy>
    <i name="e_fr_energy">    -19.50922238 </i>
    <i name="e_wo_entrp">    -19.50971257 </i>
    <i name="e_0_energy">    -19.50934492 </i>
   </energy>
  </scstep>
  <scstep>
   <time name="dav">    0.97    0.98</time>
   <time name="total">    1.05    1.06</time>
   <energy>
    <i name="e_fr_energy">    -19.47589046 </i>
    <i name="e_wo_entrp">    -19.47641510 </i>
    <i name="e_0_energy">    -19.47602162 </i>
   </energy>
  </scstep>
  <scstep>
   <time name="dav">    1.12    1.13</time>
   <time name="total">    1.19    1.20</time>
   <energy>
    <i name="e_fr_energy">    -19.47563135 </i>
    <i name="e_wo_entrp">    -19.47615944 </i>
    <i name="e_0_energy">    -19.47576337 </i>
   </energy>
  </scstep>
  <scstep>
   <time name="dav">    0.76    0.75</time>
   <time name="total">    0.77    0.78</time>
   <energy>
    <i name="alphaZ">      9.93816512 </i>
    <i name="ewald">   -558.26821903 </i>
    <i name="hartreedc">     -1.44610784 </i>
    <i name="XCdc">    -34.22138157 </i>
    <i name="pawpsdc">   1375.85870592 </i>
    <i name="pawaedc">  -1305.56503375 </i>
    <i name="eentropy">      0.00052855 </i>
    <i name="bandstr">     81.96472602 </i>
    <i name="atom">    412.26298491 </i>
    <i name="e_fr_energy">    -19.47563167 </i>
    <i name="e_wo_entrp">    -19.47616022 </i>
    <i name="e_0_energy">    -19.47576381 </i>
   </energy>
  </scstep>
  <structure>
   <crystal>
    <varray name="basis" >
     <v>       3.78433371       0.00000000       0.00000000 </v>
     <v>       0.00000000       3.78433371       0.00000000 </v>
     <v>       0.00000000       0.00000000       3.78433371 </v>
    </varray>
    <i name="volume">     54.19613038 </i>
    <varray name="rec_basis" >
     <v>       0.26424731       0.00000000       0.00000000 </v>
     <v>       0.00000000       0.26424731       0.00000000 </v>
     <v>       0.00000000       0.00000000       0.26424731 </v>
    </varray>
   </crystal>
   <varray name="positions" >
    <v>       0.00000000       0.00000000       0.00000000 </v>
    <v>       0.50000000       0.50000000       0.00000000 </v>
    <v>       0.50000000       0.00000000       0.50000000 </v>
    <v>       0.00000000       0.50000000       0.50000000 </v>
   </varray>
  </structure>
  <varray name="forces" >
   <v>       0.00000000       0.00000000       0.00000000 </v>
   <v>       0.00000000       0.00000000       0.00000000 </v>
   <v>       0.00000000       0.00000000       0.00000000 </v>
   <v>       0.00000000       0.00000000       0.00000000 </v>
  </varray>
  <varray name="stress" >
   <v>      63.38378683       0.00000000       0.00000000 </v>
   <v>       0.00000000      63.38378683       0.00000000 </v>
   <v>       0.00000000       0.00000000      63.38378683 </v>
  </varray>
  <energy>
   <i name="e_fr_energy">    -19.47563167 </i>
   <i name="e_wo_entrp">    -19.47576381 </i>
   <i name="e_0_energy">      0.00052855 </i>
  </energy>
  <time name="totalsc">   10.59   10.82</time>
  <eigenvalues>
   <array>
    <dimension dim="1">band</dimension>
    <dimension dim="2">kpoint</dimension>
    <dimension dim="3">spin</dimension>
    <field>eigene</field>
    <field>occ</field>
    <set>
     <set comment="spin 1">
      <set comment="kpoint 1">
       <r>   -4.0151    1.0000 </r>
       <r>    5.3802    1.0000 </r>
       <r>    5.3802    1.0000 </r>
       <r>    5.3802    1.0000 </r>
       <r>    6.5115    1.0000 </r>
       <r>    6.5115    1.0000 </r>
       <r>    6.5115    1.0000 </r>
       <r>   14.4548    0.0000 </r>
       <r>   14.4548    0.0000 </r>
       <r>   14.4548    0.0000 </r>
       <r>   14.4548    0.0000 </r>
       <r>   14.4548    0.0000 </r>
       <r>   14.4548    0.0000 </r>
       <r>   15.3468    0.0000 </r>
       <r>   15.3468    0.0000 </r>
       <r>   15.3468    0.0000 </r>
      </set>
      <set comment="kpoint 2">
       <r>   -3.9550    1.0000 </r>
       <r>    4.3990    1.0000 </r>
       <r>    5.4364    1.0000 </r>
       <r>    5.4364    1.0000 </r>
       <r>    6.5696    1.0000 </r>
       <r>    6.5696    1.0000 </r>
       <r>    7.5965    1.0000 </r>
       <r>   13.4297    0.0000 </r>
       <r>   13.4297    0.0000 </r>
       <r>   14.0284    0.0000 </r>
       <r>   14.0284    0.0000 </r>
       <r>   14.5070    0.0000 </r>
       <r>   14.5070    0.0000 </r>
       <r>   15.4074    0.0000 </r>
       <r>   16.4826    0.0000 </r>
       <r>   16.4826    0.0000 </r>
      </set>
      <set comment="kpoint 3">
       <r>   -3.7748    1.0000 </r>
       <r>    3.1124    1.0000 </r>
       <r>    5.6050    1.0000 </r>
       <r>    5.6050    1.0000 </r>
       <r>    6.7428    1.0000 </r>
       <r>    6.7428    1.0000 </r>
       <r>    9.1929    1.0000 </r>
       <r>   12.1685    0.0000 </r>
       <r>   12.1685    0.0000 </r>
       <r>   13.1219    0.0000 </r>
       <r>   13.1219    0.0000 </r>
       <r>   14.6636    0.0000 </r>
       <r>   14.6636    0.0000 </r>
       <r>   15.5855    0.0000 </r>
       <r>   18.0716    0.0000 </r>
       <r>   18.0717    0.0000 </r>
      </set>
      <set comment="kpoint 4">
       <r>   -3.4749    1.0000 </r>
       <r>    1.9020    1.0000 </r>
       <r>    5.8861    1.0000 </r>
       <r>    5.8861    1.0000 </r>
       <r>    7.0298    1.0000 </r>
       <r>    7.0298    1.0000 </r>
       <r>   10.9162    0.9967 </r>
       <r>   10.9973    1.0101 </r>
       <r>   10.9973    1.0101 </r>
       <r>   12.1110    0.0000 </r>
       <r>   12.1110    0.0000 </r>
       <r>   14.9245    0.0000 </r>
       <r>   14.9245    0.0000 </r>
       <r>   15.8817    0.0000 </r>
       <r>   18.7844    0.0000 </r>
       <r>   19.6427    0.0000 </r>
      </set>
      <set comment="kpoint 5">
       <r>   -3.0557    1.0000 </r>
       <r>    0.7939    1.0000 </r>
       <r>    6.2797    1.0000 </r>
       <r>    6.2797    1.0000 </r>
       <r>    7.4272    1.0000 </r>
       <r>    7.4272    1.0000 </r>
       <r>    9.9325    1.0000 </r>
       <r>    9.9325    1.0000 </r>
       <r>   11.1282    0.7072 </r>
       <r>   11.1282    0.7072 </r>
       <r>   12.7335    0.0000 </r>
       <r>   15.2896    0.0000 </r>
       <r>   15.2896    0.0000 </r>
       <r>   16.2951    0.0000 </r>
       <r>   18.6653    0.0000 </r>
       <r>   18.6653    0.0000 </r>
      </set>
      <set comment="kpoint 6">
       <r>   -2.5180    1.0000 </r>
       <r>   -0.2050    1.0000 </r>
       <r>    6.7858    1.0000 </r>
       <r>    6.7858    1.0000 </r>
       <r>    7.9257    1.0000 </r>
       <r>    7.9257    1.0000 </r>
       <r>    8.9779    1.0000 </r>
       <r>    8.9779    1.0000 </r>
       <r>   10.2261    1.0000 </r>
       <r>   10.2261    1.0000 </r>
       <r>   14.6233    0.0000 </r>
       <r>   15.7588    0.0000 </r>
       <r>   15.7588    0.0000 </r>
       <r>   16.8244    0.0000 </r>
       <r>   17.7860    0.0000 </r>
       <r>   17.7860    0.0000 </r>
      </set>
      <set comment="kpoint 7">
       <r>   -1.8627    1.0000 </r>
       <r>   -1.0912    1.0000 </r>
       <r>    7.4042    1.0000 </r>
       <r>    7.4042    1.0000 </r>
       <r>    8.1350    1.0000 </r>
       <r>    8.1350    1.0000 </r>
       <r>    8.4710    1.0000 </r>
       <r>    8.4710    1.0000 </r>
       <r>    9.4758    1.0000 </r>
       <r>    9.4758    1.0000 </r>
       <r>   16.3317    0.0000 </r>
       <r>   16.3317    0.0000 </r>
       <r>   16.5479    0.0000 </r>
       <r>   17.0077    0.0000 </r>
       <r>   17.0077    0.0000 </r>
       <r>   17.4670    0.0000 </r>
      </set>
      <set comment="kpoint 8">
       <r>   -3.8949    1.0000 </r>
       <r>    4.4562    1.0000 </r>
       <r>    4.4562    1.0000 </r>
       <r>    5.4926    1.0000 </r>
       <r>    6.6272    1.0000 </r>
       <r>    7.6532    1.0000 </r>
       <r>    7.6532    1.0000 </r>
       <r>   12.4456    0.0000 </r>
       <r>   13.4846    0.0000 </r>
       <r>   13.4846    0.0000 </r>
       <r>   14.0815    0.0000 </r>
       <r>   14.0815    0.0000 </r>
       <r>   14.5589    0.0000 </r>
       <r>   16.5081    0.0000 </r>
       <r>   16.5392    0.0000 </r>
       <r>   16.5392    0.0000 </r>
      </set>
      <set comment="kpoint 9">
       <r>   -3.7148    1.0000 </r>
       <r>    3.1703    1.0000 </r>
       <r>    4.6278    1.0000 </r>
       <r>    5.6613    1.0000 </r>
       <r>    6.7999    1.0000 </r>
       <r>    7.8230    1.0000 </r>
       <r>    9.2485    1.0000 </r>
       <r>   11.2254   -0.0365 </r>
       <r>   12.2240    0.0000 </r>
       <r>   13.1765    0.0000 </r>
       <r>   13.6493    0.0000 </r>
       <r>   14.0540    0.0000 </r>
       <r>   14.2410    0.0000 </r>
       <r>   16.7089    0.0000 </r>
       <r>   17.5392    0.0000 </r>
       <r>   18.1274    0.0000 </r>
      </set>
      <set comment="kpoint 10">
       <r>   -3.4149    1.0000 </r>
       <r>    1.9602    1.0000 </r>
       <r>    4.9134    1.0000 </r>
       <r>    5.9424    1.0000 </r>
       <r>    7.0851    1.0000 </r>
       <r>    8.1043    1.0000 </r>
       <r>   10.0745    1.0000 </r>
       <r>   10.9701    0.9975 </r>
       <r>   11.0531    1.0516 </r>
       <r>   12.1675    0.0000 </r>
       <r>   13.1020    0.0000 </r>
       <r>   13.9236    0.0000 </r>
       <r>   14.5071    0.0000 </r>
       <r>   16.9913    0.0000 </r>
       <r>   18.8246    0.0000 </r>
       <r>   19.1156    0.0000 </r>
      </set>
      <set comment="kpoint 11">
       <r>   -2.9959    1.0000 </r>
       <r>    0.8525    1.0000 </r>
       <r>    5.3126    1.0000 </r>
       <r>    6.3359    1.0000 </r>
       <r>    7.4754    1.0000 </r>
       <r>    8.4928    1.0000 </r>
       <r>    9.0261    1.0000 </r>
       <r>    9.9885    1.0000 </r>
       <r>   11.1882    0.1266 </r>
       <r>   12.1309    0.0000 </r>
       <r>   12.7827    0.0000 </r>
       <r>   14.3067    0.0000 </r>
       <r>   14.8823    0.0000 </r>
       <r>   17.3861    0.0000 </r>
       <r>   17.8196    0.0000 </r>
       <r>   18.2200    0.0000 </r>
      </set>
      <set comment="kpoint 12">
       <r>   -2.4584    1.0000 </r>
       <r>   -0.1461    1.0000 </r>
       <r>    5.8243    1.0000 </r>
       <r>    6.8420    1.0000 </r>
       <r>    7.8352    1.0000 </r>
       <r>    8.2206    1.0000 </r>
       <r>    8.9697    1.0000 </r>
       <r>    9.0341    1.0000 </r>
       <r>   10.3019    1.0000 </r>
       <r>   11.2263   -0.0381 </r>
       <r>   14.6419    0.0000 </r>
       <r>   14.7982    0.0000 </r>
       <r>   15.3907    0.0000 </r>
       <r>   16.9103    0.0000 </r>
       <r>   17.3488    0.0000 </r>
       <r>   17.8922    0.0000 </r>
      </set>
      <set comment="kpoint 13">
       <r>   -1.8033    1.0000 </r>
       <r>   -1.0320    1.0000 </r>
       <r>    6.4466    1.0000 </r>
       <r>    7.1721    1.0000 </r>
       <r>    7.4604    1.0000 </r>
       <r>    8.1912    1.0000 </r>
       <r>    8.6427    1.0000 </r>
       <r>    9.2225    1.0000 </r>
       <r>    9.8398    1.0000 </r>
       <r>   10.4232    1.0000 </r>
       <r>   15.3969    0.0000 </r>
       <r>   15.8613    0.0000 </r>
       <r>   16.1018    0.0000 </r>
       <r>   16.5675    0.0000 </r>
       <r>   16.6861    0.0000 </r>
       <r>   18.5080    0.0000 </r>
      </set>
      <set comment="kpoint 14">
       <r>   -3.5349    1.0000 </r>
       <r>    3.3436    1.0000 </r>
       <r>    3.3436    1.0000 </r>
       <r>    5.8299    1.0000 </r>
       <r>    6.9699    1.0000 </r>
       <r>    9.4146    1.0000 </r>
       <r>    9.4146    1.0000 </r>
       <r>   10.0002    1.0000 </r>
       <r>   12.3907    0.0000 </r>
       <r>   12.3907    0.0000 </r>
       <r>   13.3409    0.0000 </r>
       <r>   13.3409    0.0000 </r>
       <r>   14.8711    0.0000 </r>
       <r>   17.1755    0.0000 </r>
       <r>   18.2945    0.0000 </r>
       <r>   18.2945    0.0000 </r>
      </set>
      <set comment="kpoint 15">
       <r>   -3.2353    1.0000 </r>
       <r>    2.1348    1.0000 </r>
       <r>    3.6321    1.0000 </r>
       <r>    6.1110    1.0000 </r>
       <r>    7.2454    1.0000 </r>
       <r>    8.8519    1.0000 </r>
       <r>    9.6879    1.0000 </r>
       <r>   11.1293    0.6962 </r>
       <r>   11.2205   -0.0263 </r>
       <r>   12.3389    0.0000 </r>
       <r>   12.6681    0.0000 </r>
       <r>   13.6178    0.0000 </r>
       <r>   14.4711    0.0000 </r>
       <r>   17.6486    0.0000 </r>
       <r>   18.1641    0.0000 </r>
       <r>   18.2678    0.0000 </r>
      </set>
      <set comment="kpoint 16">
       <r>   -2.8166    1.0000 </r>
       <r>    1.0282    1.0000 </r>
       <r>    4.0352    1.0000 </r>
       <r>    6.5045    1.0000 </r>
       <r>    7.4950    1.0000 </r>
       <r>    7.9381    1.0000 </r>
       <r>   10.0523    1.0000 </r>
       <r>   10.1563    1.0000 </r>
       <r>   11.3804    0.0033 </r>
       <r>   12.9140    0.0000 </r>
       <r>   13.0563    0.0000 </r>
       <r>   13.6169    0.0000 </r>
       <r>   14.0275    0.0000 </r>
       <r>   16.6248    0.0000 </r>
       <r>   17.3274    0.0000 </r>
       <r>   18.9600    0.0000 </r>
      </set>
      <set comment="kpoint 17">
       <r>   -2.2796    1.0000 </r>
       <r>    0.0306    1.0000 </r>
       <r>    4.5521    1.0000 </r>
       <r>    6.7582    1.0000 </r>
       <r>    7.0105    1.0000 </r>
       <r>    8.2257    1.0000 </r>
       <r>    9.2023    1.0000 </r>
       <r>   10.2225    1.0000 </r>
       <r>   10.7950    1.0000 </r>
       <r>   12.7496    0.0000 </r>
       <r>   13.5546    0.0000 </r>
       <r>   14.3201    0.0000 </r>
       <r>   14.9995    0.0000 </r>
       <r>   15.6995    0.0000 </r>
       <r>   16.4608    0.0000 </r>
       <r>   19.4567    0.0000 </r>
      </set>
      <set comment="kpoint 18">
       <r>   -1.6252    1.0000 </r>
       <r>   -0.8546    1.0000 </r>
       <r>    5.1814    1.0000 </r>
       <r>    5.9201    1.0000 </r>
       <r>    7.6289    1.0000 </r>
       <r>    8.3596    1.0000 </r>
       <r>    8.8286    1.0000 </r>
       <r>    9.5357    1.0000 </r>
       <r>   11.2628   -0.0427 </r>
       <r>   11.9541    0.0000 </r>
       <r>   14.1619    0.0000 </r>
       <r>   14.8774    0.0000 </r>
       <r>   14.9846    0.0000 </r>
       <r>   15.6795    0.0000 </r>
       <r>   16.8697    0.0000 </r>
       <r>   18.8083    0.0000 </r>
      </set>
      <set comment="kpoint 19">
       <r>   -2.9362    1.0000 </r>
       <r>    2.4255    1.0000 </r>
       <r>    2.4255    1.0000 </r>
       <r>    6.3920    1.0000 </r>
       <r>    7.3803    1.0000 </r>
       <r>    7.8357    1.0000 </r>
       <r>   11.3777    0.0036 </r>
       <r>   11.3777    0.0036 </r>
       <r>   11.4994    0.0000 </r>
       <r>   11.4994    0.0000 </r>
       <r>   12.6417    0.0000 </r>
       <r>   12.6417    0.0000 </r>
       <r>   15.3903    0.0000 </r>
       <r>   16.5223    0.0000 </r>
       <r>   17.2943    0.0000 </r>
       <r>   17.8330    0.0000 </r>
      </set>
      <set comment="kpoint 20">
       <r>   -2.5182    1.0000 </r>
       <r>    1.3206    1.0000 </r>
       <r>    2.8317    1.0000 </r>
       <r>    6.5397    1.0000 </r>
       <r>    6.7855    1.0000 </r>
       <r>    8.0047    1.0000 </r>
       <r>   10.4361    1.0000 </r>
       <r>   11.4230    0.0009 </r>
       <r>   11.8896    0.0000 </r>
       <r>   11.9999    0.0000 </r>
       <r>   12.8020    0.0000 </r>
       <r>   13.4138    0.0000 </r>
       <r>   15.1072    0.0000 </r>
       <r>   15.4867    0.0000 </r>
       <r>   16.3557    0.0000 </r>
       <r>   18.8868    0.0000 </r>
      </set>
      <set comment="kpoint 21">
       <r>   -1.9820    1.0000 </r>
       <r>    0.3246    1.0000 </r>
       <r>    3.3526    1.0000 </r>
       <r>    5.5881    1.0000 </r>
       <r>    7.2914    1.0000 </r>
       <r>    8.5006    1.0000 </r>
       <r>    9.4826    1.0000 </r>
       <r>   10.6423    1.0000 </r>
       <r>   12.3592    0.0000 </r>
       <r>   12.3909    0.0000 </r>
       <r>   13.4031    0.0000 </r>
       <r>   14.3691    0.0000 </r>
       <r>   14.5522    0.0000 </r>
       <r>   15.1942    0.0000 </r>
       <r>   15.4865    0.0000 </r>
       <r>   20.5762    0.0000 </r>
      </set>
      <set comment="kpoint 22">
       <r>   -1.3286    1.0000 </r>
       <r>   -0.5592    1.0000 </r>
       <r>    3.9871    1.0000 </r>
       <r>    4.7334    1.0000 </r>
       <r>    7.9098    1.0000 </r>
       <r>    8.6402    1.0000 </r>
       <r>    9.1157    1.0000 </r>
       <r>    9.8351    1.0000 </r>
       <r>   12.9354    0.0000 </r>
       <r>   13.0023    0.0000 </r>
       <r>   13.6160    0.0000 </r>
       <r>   13.7233    0.0000 </r>
       <r>   14.0081    0.0000 </r>
       <r>   14.7018    0.0000 </r>
       <r>   17.1291    0.0000 </r>
       <r>   19.0815    0.0000 </r>
      </set>
      <set comment="kpoint 23">
       <r>   -2.1011    1.0000 </r>
       <r>    1.7294    1.0000 </r>
       <r>    1.7294    1.0000 </r>
       <r>    5.4761    1.0000 </r>
       <r>    7.1790    1.0000 </r>
       <r>    8.3893    1.0000 </r>
       <r>   10.8277    0.9999 </r>
       <r>   10.8277    0.9999 </r>
       <r>   11.9400    0.0000 </r>
       <r>   11.9400    0.0000 </r>
       <r>   13.6768    0.0000 </r>
       <r>   13.6768    0.0000 </r>
       <r>   14.4428    0.0000 </r>
       <r>   15.4133    0.0000 </r>
       <r>   16.1148    0.0000 </r>
       <r>   18.6635    0.0000 </r>
      </set>
      <set comment="kpoint 24">
       <r>   -1.5660    1.0000 </r>
       <r>    0.7356    1.0000 </r>
       <r>    2.2536    1.0000 </r>
       <r>    4.5067    1.0000 </r>
       <r>    7.6848    1.0000 </r>
       <r>    8.8957    1.0000 </r>
       <r>    9.8749    1.0000 </r>
       <r>   11.0485    1.0511 </r>
       <r>   11.3305    0.0033 </r>
       <r>   12.4484    0.0000 </r>
       <r>   13.5020    0.0000 </r>
       <r>   14.1376    0.0000 </r>
       <r>   14.5381    0.0000 </r>
       <r>   15.5446    0.0000 </r>
       <r>   15.9530    0.0000 </r>
       <r>   19.7929    0.0000 </r>
      </set>
      <set comment="kpoint 25">
       <r>   -0.9140    1.0000 </r>
       <r>   -0.1463    1.0000 </r>
       <r>    2.8924    1.0000 </r>
       <r>    3.6441    1.0000 </r>
       <r>    8.3028    1.0000 </r>
       <r>    9.0330    1.0000 </r>
       <r>    9.5124    1.0000 </r>
       <r>   10.2330    1.0000 </r>
       <r>   11.9446    0.0000 </r>
       <r>   12.6686    0.0000 </r>
       <r>   13.0495    0.0000 </r>
       <r>   13.7472    0.0000 </r>
       <r>   14.7019    0.0000 </r>
       <r>   15.3369    0.0000 </r>
       <r>   17.4708    0.0000 </r>
       <r>   19.3842    0.0000 </r>
      </set>
      <set comment="kpoint 26">
       <r>   -1.0325    1.0000 </r>
       <r>    1.2627    1.0000 </r>
       <r>    1.2627    1.0000 </r>
       <r>    3.5294    1.0000 </r>
       <r>    8.1904    1.0000 </r>
       <r>    9.4029    1.0000 </r>
       <r>   10.3788    1.0000 </r>
       <r>   10.3788    1.0000 </r>
       <r>   11.5507    0.0000 </r>
       <r>   11.5507    0.0000 </r>
       <r>   12.5573    0.0000 </r>
       <r>   13.6559    0.0000 </r>
       <r>   15.9935    0.0000 </r>
       <r>   15.9935    0.0000 </r>
       <r>   17.0402    0.0000 </r>
       <r>   19.6916    0.0000 </r>
      </set>
      <set comment="kpoint 27">
       <r>   -0.3823    1.0000 </r>
       <r>    0.3833    1.0000 </r>
       <r>    1.9050    1.0000 </r>
       <r>    2.6612    1.0000 </r>
       <r>    8.8081    1.0000 </r>
       <r>    9.5377    1.0000 </r>
       <r>   10.0181    1.0000 </r>
       <r>   10.7364    1.0000 </r>
       <r>   10.9943    1.0081 </r>
       <r>   11.7208    0.0000 </r>
       <r>   12.1545    0.0000 </r>
       <r>   12.8582    0.0000 </r>
       <r>   16.5097    0.0000 </r>
       <r>   17.0008    0.0000 </r>
       <r>   17.8713    0.0000 </r>
       <r>   19.6353    0.0000 </r>
      </set>
      <set comment="kpoint 28">
       <r>    0.2657    1.0000 </r>
       <r>    1.0287    1.0000 </r>
       <r>    1.0287    1.0000 </r>
       <r>    1.7885    1.0000 </r>
       <r>    9.4253    1.0000 </r>
       <r>   10.1542    1.0000 </r>
       <r>   10.1542    1.0000 </r>
       <r>   10.6302    1.0000 </r>
       <r>   10.8821    0.9988 </r>
       <r>   11.3445    0.0048 </r>
       <r>   11.3445    0.0048 </r>
       <r>   12.0538    0.0000 </r>
       <r>   18.1576    0.0000 </r>
       <r>   18.2380    0.0000 </r>
       <r>   18.2380    0.0000 </r>
       <r>   19.4459    0.0000 </r>
      </set>
      <set comment="kpoint 29">
       <r>   -3.8349    1.0000 </r>
       <r>    4.5134    1.0000 </r>
       <r>    4.5134    1.0000 </r>
       <r>    4.5134    1.0000 </r>
       <r>    7.7098    1.0000 </r>
       <r>    7.7098    1.0000 </r>
       <r>    7.7098    1.0000 </r>
       <r>   12.5011    0.0000 </r>
       <r>   12.5011    0.0000 </r>
       <r>   12.5011    0.0000 </r>
       <r>   14.6111    0.0000 </r>
       <r>   14.6111    0.0000 </r>
       <r>   14.6111    0.0000 </r>
       <r>   16.5653    0.0000 </r>
       <r>   16.5653    0.0000 </r>
       <r>   16.5653    0.0000 </r>
      </set>
      <set comment="kpoint 30">
       <r>   -3.6548    1.0000 </r>
       <r>    3.2280    1.0000 </r>
       <r>    4.6849    1.0000 </r>
       <r>    4.6849    1.0000 </r>
       <r>    7.8788    1.0000 </r>
       <r>    7.8788    1.0000 </r>
       <r>    9.3037    1.0000 </r>
       <r>   11.2819   -0.0249 </r>
       <r>   11.2819   -0.0249 </r>
       <r>   12.6677    0.0000 </r>
       <r>   14.1078    0.0000 </r>
       <r>   14.1078    0.0000 </r>
       <r>   14.7677    0.0000 </r>
       <r>   16.7382    0.0000 </r>
       <r>   17.5953    0.0000 </r>
       <r>   17.5953    0.0000 </r>
      </set>
      <set comment="kpoint 31">
       <r>   -3.3550    1.0000 </r>
       <r>    2.0184    1.0000 </r>
       <r>    4.9703    1.0000 </r>
       <r>    4.9703    1.0000 </r>
       <r>    8.1573    1.0000 </r>
       <r>    8.1573    1.0000 </r>
       <r>   10.1331    1.0000 </r>
       <r>   10.1331    1.0000 </r>
       <r>   11.0224    1.0321 </r>
       <r>   12.9469    0.0000 </r>
       <r>   13.1572    0.0000 </r>
       <r>   13.1572    0.0000 </r>
       <r>   15.0286    0.0000 </r>
       <r>   17.0254    0.0000 </r>
       <r>   17.8287    0.0000 </r>
       <r>   19.1613    0.0000 </r>
      </set>
      <set comment="kpoint 32">
       <r>   -2.9361    1.0000 </r>
       <r>    0.9110    1.0000 </r>
       <r>    5.3690    1.0000 </r>
       <r>    5.3690    1.0000 </r>
       <r>    8.5192    1.0000 </r>
       <r>    8.5192    1.0000 </r>
       <r>    9.1067    1.0000 </r>
       <r>    9.1067    1.0000 </r>
       <r>   12.1876    0.0000 </r>
       <r>   12.1876    0.0000 </r>
       <r>   12.8110    0.0000 </r>
       <r>   13.3601    0.0000 </r>
       <r>   15.3937    0.0000 </r>
       <r>   16.8295    0.0000 </r>
       <r>   17.4274    0.0000 </r>
       <r>   18.7663    0.0000 </r>
      </set>
      <set comment="kpoint 33">
       <r>   -2.3988    1.0000 </r>
       <r>   -0.0872    1.0000 </r>
       <r>    5.8795    1.0000 </r>
       <r>    5.8795    1.0000 </r>
       <r>    8.0832    1.0000 </r>
       <r>    8.0832    1.0000 </r>
       <r>    9.0888    1.0000 </r>
       <r>    9.0888    1.0000 </r>
       <r>   11.2869   -0.0203 </r>
       <r>   11.2869   -0.0203 </r>
       <r>   13.7920    0.0000 </r>
       <r>   14.7620    0.0000 </r>
       <r>   15.8627    0.0000 </r>
       <r>   15.9221    0.0000 </r>
       <r>   17.8885    0.0000 </r>
       <r>   17.9456    0.0000 </r>
      </set>
      <set comment="kpoint 34">
       <r>   -1.7439    1.0000 </r>
       <r>   -0.9729    1.0000 </r>
       <r>    6.4930    1.0000 </r>
       <r>    6.4930    1.0000 </r>
       <r>    7.2610    1.0000 </r>
       <r>    7.2610    1.0000 </r>
       <r>    9.6475    1.0000 </r>
       <r>    9.6475    1.0000 </r>
       <r>   10.5104    1.0000 </r>
       <r>   10.5104    1.0000 </r>
       <r>   14.4040    0.0000 </r>
       <r>   15.1124    0.0000 </r>
       <r>   16.4352    0.0000 </r>
       <r>   16.6728    0.0000 </r>
       <r>   17.1110    0.0000 </r>
       <r>   18.4824    0.0000 </r>
      </set>
      <set comment="kpoint 35">
       <r>   -3.4749    1.0000 </r>
       <r>    3.4013    1.0000 </r>
       <r>    3.4013    1.0000 </r>
       <r>    4.8561    1.0000 </r>
       <r>    8.0441    1.0000 </r>
       <r>    9.4677    1.0000 </r>
       <r>    9.4677    1.0000 </r>
       <r>   10.0592    1.0000 </r>
       <r>   11.4524    0.0002 </r>
       <r>   11.4524    0.0002 </r>
       <r>   14.2687    0.0000 </r>
       <r>   14.2687    0.0000 </r>
       <r>   14.9233    0.0000 </r>
       <r>   17.2328    0.0000 </r>
       <r>   17.7614    0.0000 </r>
       <r>   17.7637    0.0000 </r>
      </set>
      <set comment="kpoint 36">
       <r>   -3.1754    1.0000 </r>
       <r>    2.1929    1.0000 </r>
       <r>    3.6896    1.0000 </r>
       <r>    5.1408    1.0000 </r>
       <r>    8.2918    1.0000 </r>
       <r>    8.9349    1.0000 </r>
       <r>    9.7198    1.0000 </r>
       <r>   10.3258    1.0000 </r>
       <r>   11.1608    0.3697 </r>
       <r>   11.7563    0.0000 </r>
       <r>   13.3229    0.0000 </r>
       <r>   14.5245    0.0000 </r>
       <r>   14.5373    0.0000 </r>
       <r>   16.6641    0.0000 </r>
       <r>   18.0438    0.0000 </r>
       <r>   18.2196    0.0000 </r>
      </set>
      <set comment="kpoint 37">
       <r>   -2.7569    1.0000 </r>
       <r>    1.0867    1.0000 </r>
       <r>    4.0924    1.0000 </r>
       <r>    5.5375    1.0000 </r>
       <r>    7.7864    1.0000 </r>
       <r>    8.7725    1.0000 </r>
       <r>    9.2081    1.0000 </r>
       <r>   10.1637    1.0000 </r>
       <r>   12.0840    0.0000 </r>
       <r>   12.3601    0.0000 </r>
       <r>   13.0314    0.0000 </r>
       <r>   13.6719    0.0000 </r>
       <r>   14.9165    0.0000 </r>
       <r>   15.6524    0.0000 </r>
       <r>   18.2751    0.0000 </r>
       <r>   18.4352    0.0000 </r>
      </set>
      <set comment="kpoint 38">
       <r>   -2.2200    1.0000 </r>
       <r>    0.0894    1.0000 </r>
       <r>    4.6087    1.0000 </r>
       <r>    6.0366    1.0000 </r>
       <r>    6.8567    1.0000 </r>
       <r>    8.2678    1.0000 </r>
       <r>    9.2582    1.0000 </r>
       <r>   10.6133    1.0000 </r>
       <r>   11.4900    0.0000 </r>
       <r>   12.5945    0.0000 </r>
       <r>   12.8060    0.0000 </r>
       <r>   14.7347    0.0000 </r>
       <r>   14.8633    0.0000 </r>
       <r>   15.4422    0.0000 </r>
       <r>   17.4018    0.0000 </r>
       <r>   18.9387    0.0000 </r>
      </set>
      <set comment="kpoint 39">
       <r>   -1.5658    1.0000 </r>
       <r>   -0.7955    1.0000 </r>
       <r>    5.2362    1.0000 </r>
       <r>    5.9623    1.0000 </r>
       <r>    6.7065    1.0000 </r>
       <r>    7.4267    1.0000 </r>
       <r>    9.8618    1.0000 </r>
       <r>   10.5380    1.0000 </r>
       <r>   11.3499    0.0049 </r>
       <r>   12.0142    0.0000 </r>
       <r>   13.2036    0.0000 </r>
       <r>   13.9174    0.0000 </r>
       <r>   15.9162    0.0000 </r>
       <r>   16.6177    0.0000 </r>
       <r>   16.9057    0.0000 </r>
       <r>   18.7826    0.0000 </r>
      </set>
      <set comment="kpoint 40">
       <r>   -2.8764    1.0000 </r>
       <r>    2.4835    1.0000 </r>
       <r>    2.4835    1.0000 </r>
       <r>    5.4233    1.0000 </r>
       <r>    7.6808    1.0000 </r>
       <r>    8.6631    1.0000 </r>
       <r>   10.5458    1.0000 </r>
       <r>   10.5458    1.0000 </r>
       <r>   11.4895    0.0000 </r>
       <r>   11.4895    0.0000 </r>
       <r>   13.6025    0.0000 </r>
       <r>   13.6025    0.0000 </r>
       <r>   15.4424    0.0000 </r>
       <r>   15.5569    0.0000 </r>
       <r>   17.8892    0.0000 </r>
       <r>   18.2919    0.0000 </r>
      </set>
      <set comment="kpoint 41">
       <r>   -2.4586    1.0000 </r>
       <r>    1.3790    1.0000 </r>
       <r>    2.8894    1.0000 </r>
       <r>    5.8080    1.0000 </r>
       <r>    6.6417    1.0000 </r>
       <r>    9.0391    1.0000 </r>
       <r>    9.5026    1.0000 </r>
       <r>   10.9494    0.9951 </r>
       <r>   11.8225    0.0000 </r>
       <r>   12.6750    0.0000 </r>
       <r>   13.2450    0.0000 </r>
       <r>   14.0270    0.0000 </r>
       <r>   14.5345    0.0000 </r>
       <r>   15.1605    0.0000 </r>
       <r>   17.3545    0.0000 </r>
       <r>   18.9409    0.0000 </r>
      </set>
      <set comment="kpoint 42">
       <r>   -1.9225    1.0000 </r>
       <r>    0.3833    1.0000 </r>
       <r>    3.4100    1.0000 </r>
       <r>    5.6284    1.0000 </r>
       <r>    6.3696    1.0000 </r>
       <r>    8.5527    1.0000 </r>
       <r>    9.5400    1.0000 </r>
       <r>   11.4534    0.0002 </r>
       <r>   11.6346    0.0000 </r>
       <r>   12.4462    0.0000 </r>
       <r>   13.6083    0.0000 </r>
       <r>   14.3757    0.0000 </r>
       <r>   14.4236    0.0000 </r>
       <r>   15.2701    0.0000 </r>
       <r>   16.4826    0.0000 </r>
       <r>   20.4648    0.0000 </r>
      </set>
      <set comment="kpoint 43">
       <r>   -1.2693    1.0000 </r>
       <r>   -0.5002    1.0000 </r>
       <r>    4.0438    1.0000 </r>
       <r>    4.7880    1.0000 </r>
       <r>    6.9767    1.0000 </r>
       <r>    7.7091    1.0000 </r>
       <r>   10.1500    1.0000 </r>
       <r>   10.8602    0.9995 </r>
       <r>   12.0650    0.0000 </r>
       <r>   12.7839    0.0000 </r>
       <r>   12.9952    0.0000 </r>
       <r>   13.6722    0.0000 </r>
       <r>   15.0000    0.0000 </r>
       <r>   15.6959    0.0000 </r>
       <r>   17.1767    0.0000 </r>
       <r>   19.1063    0.0000 </r>
      </set>
      <set comment="kpoint 44">
       <r>   -2.0416    1.0000 </r>
       <r>    1.7875    1.0000 </r>
       <r>    1.7875    1.0000 </r>
       <r>    5.5159    1.0000 </r>
       <r>    6.2569    1.0000 </r>
       <r>    9.4300    1.0000 </r>
       <r>    9.8982    1.0000 </r>
       <r>    9.8982    1.0000 </r>
       <r>   12.9229    0.0000 </r>
       <r>   12.9229    0.0000 </r>
       <r>   13.5033    0.0000 </r>
       <r>   13.7618    0.0000 </r>
       <r>   13.7618    0.0000 </r>
       <r>   16.1667    0.0000 </r>
       <r>   16.4184    0.0000 </r>
       <r>   18.7178    0.0000 </r>
      </set>
      <set comment="kpoint 45">
       <r>   -1.5067    1.0000 </r>
       <r>    0.7941    1.0000 </r>
       <r>    2.3115    1.0000 </r>
       <r>    4.5612    1.0000 </r>
       <r>    6.7508    1.0000 </r>
       <r>    8.9480    1.0000 </r>
       <r>    9.9329    1.0000 </r>
       <r>   10.4031    1.0000 </r>
       <r>   12.0632    0.0000 </r>
       <r>   12.5703    0.0000 </r>
       <r>   13.4535    0.0000 </r>
       <r>   14.1969    0.0000 </r>
       <r>   15.5434    0.0000 </r>
       <r>   15.6017    0.0000 </r>
       <r>   16.0058    0.0000 </r>
       <r>   19.8446    0.0000 </r>
      </set>
      <set comment="kpoint 46">
       <r>   -0.8549    1.0000 </r>
       <r>   -0.0875    1.0000 </r>
       <r>    2.9499    1.0000 </r>
       <r>    3.7008    1.0000 </r>
       <r>    7.3712    1.0000 </r>
       <r>    8.1046    1.0000 </r>
       <r>   10.5437    1.0000 </r>
       <r>   11.0176    1.0275 </r>
       <r>   11.2571   -0.0469 </r>
       <r>   11.7406    0.0000 </r>
       <r>   14.0552    0.0000 </r>
       <r>   14.7525    0.0000 </r>
       <r>   14.7574    0.0000 </r>
       <r>   15.3910    0.0000 </r>
       <r>   17.5203    0.0000 </r>
       <r>   19.4227    0.0000 </r>
      </set>
      <set comment="kpoint 47">
       <r>   -0.9734    1.0000 </r>
       <r>    1.3210    1.0000 </r>
       <r>    1.3210    1.0000 </r>
       <r>    3.5860    1.0000 </r>
       <r>    7.2584    1.0000 </r>
       <r>    9.4545    1.0000 </r>
       <r>    9.4545    1.0000 </r>
       <r>   10.4354    1.0000 </r>
       <r>   11.6317    0.0000 </r>
       <r>   12.5650    0.0000 </r>
       <r>   12.5650    0.0000 </r>
       <r>   14.6634    0.0000 </r>
       <r>   16.0476    0.0000 </r>
       <r>   16.0476    0.0000 </r>
       <r>   17.0917    0.0000 </r>
       <r>   19.7429    0.0000 </r>
      </set>
      <set comment="kpoint 48">
       <r>   -0.3234    1.0000 </r>
       <r>    0.4419    1.0000 </r>
       <r>    1.9630    1.0000 </r>
       <r>    2.7187    1.0000 </r>
       <r>    7.8797    1.0000 </r>
       <r>    8.6124    1.0000 </r>
       <r>   10.0714    1.0000 </r>
       <r>   10.7978    1.0000 </r>
       <r>   11.0448    1.0498 </r>
       <r>   11.7570    0.0000 </r>
       <r>   13.1664    0.0000 </r>
       <r>   13.8675    0.0000 </r>
       <r>   16.5626    0.0000 </r>
       <r>   17.0528    0.0000 </r>
       <r>   17.9212    0.0000 </r>
       <r>   19.6784    0.0000 </r>
      </set>
      <set comment="kpoint 49">
       <r>    0.3243    1.0000 </r>
       <r>    1.0870    1.0000 </r>
       <r>    1.0870    1.0000 </r>
       <r>    1.8465    1.0000 </r>
       <r>    8.5002    1.0000 </r>
       <r>    9.2314    1.0000 </r>
       <r>    9.2314    1.0000 </r>
       <r>    9.9605    1.0000 </r>
       <r>   11.6518    0.0000 </r>
       <r>   12.3612    0.0000 </r>
       <r>   12.3612    0.0000 </r>
       <r>   13.0667    0.0000 </r>
       <r>   18.2079    0.0000 </r>
       <r>   18.2880    0.0000 </r>
       <r>   18.2880    0.0000 </r>
       <r>   19.4922    0.0000 </r>
      </set>
      <set comment="kpoint 50">
       <r>   -3.2952    1.0000 </r>
       <r>    3.5742    1.0000 </r>
       <r>    3.5742    1.0000 </r>
       <r>    3.5742    1.0000 </r>
       <r>    9.6076    1.0000 </r>
       <r>    9.6076    1.0000 </r>
       <r>    9.6076    1.0000 </r>
       <r>   10.2543    1.0000 </r>
       <r>   10.2543    1.0000 </r>
       <r>   10.2543    1.0000 </r>
       <r>   15.0798    0.0000 </r>
       <r>   15.0798    0.0000 </r>
       <r>   15.0798    0.0000 </r>
       <r>   16.5851    0.0000 </r>
       <r>   17.4039    0.0000 </r>
       <r>   17.4039    0.0000 </r>
      </set>
      <set comment="kpoint 51">
       <r>   -2.9960    1.0000 </r>
       <r>    2.3672    1.0000 </r>
       <r>    3.8620    1.0000 </r>
       <r>    3.8620    1.0000 </r>
       <r>    9.0234    1.0000 </r>
       <r>    9.0234    1.0000 </r>
       <r>    9.9584    1.0000 </r>
       <r>    9.9584    1.0000 </r>
       <r>   10.4653    1.0000 </r>
       <r>   11.3942    0.0023 </r>
       <r>   14.6852    0.0000 </r>
       <r>   14.6852    0.0000 </r>
       <r>   15.3405    0.0000 </r>
       <r>   15.4770    0.0000 </r>
       <r>   17.6896    0.0000 </r>
       <r>   18.3856    0.0000 </r>
      </set>
      <set comment="kpoint 52">
       <r>   -2.5779    1.0000 </r>
       <r>    1.2620    1.0000 </r>
       <r>    4.2637    1.0000 </r>
       <r>    4.2637    1.0000 </r>
       <r>    7.9767    1.0000 </r>
       <r>    7.9767    1.0000 </r>
       <r>   10.3302    1.0000 </r>
       <r>   10.3302    1.0000 </r>
       <r>   10.8719    0.9992 </r>
       <r>   13.1895    0.0000 </r>
       <r>   13.8372    0.0000 </r>
       <r>   13.8372    0.0000 </r>
       <r>   14.4555    0.0000 </r>
       <r>   15.7052    0.0000 </r>
       <r>   18.0888    0.0000 </r>
       <r>   19.0672    0.0000 </r>
      </set>
      <set comment="kpoint 53">
       <r>   -2.0415    1.0000 </r>
       <r>    0.2657    1.0000 </r>
       <r>    4.7771    1.0000 </r>
       <r>    4.7771    1.0000 </r>
       <r>    7.0231    1.0000 </r>
       <r>    7.0231    1.0000 </r>
       <r>   10.8192    0.9999 </r>
       <r>   10.8192    0.9999 </r>
       <r>   11.3764    0.0036 </r>
       <r>   12.9778    0.0000 </r>
       <r>   12.9778    0.0000 </r>
       <r>   13.5301    0.0000 </r>
       <r>   15.0680    0.0000 </r>
       <r>   16.1737    0.0000 </r>
       <r>   18.1944    0.0000 </r>
       <r>   18.6053    0.0000 </r>
      </set>
      <set comment="kpoint 54">
       <r>   -1.3879    1.0000 </r>
       <r>   -0.6183    1.0000 </r>
       <r>    5.3880    1.0000 </r>
       <r>    5.3880    1.0000 </r>
       <r>    6.1908    1.0000 </r>
       <r>    6.1908    1.0000 </r>
       <r>   11.3862    0.0029 </r>
       <r>   11.3862    0.0029 </r>
       <r>   11.9880    0.0000 </r>
       <r>   12.2169    0.0000 </r>
       <r>   12.2169    0.0000 </r>
       <r>   12.7065    0.0000 </r>
       <r>   16.7454    0.0000 </r>
       <r>   16.9736    0.0000 </r>
       <r>   17.4196    0.0000 </r>
       <r>   18.7495    0.0000 </r>
      </set>
      <set comment="kpoint 55">
       <r>   -2.6973    1.0000 </r>
       <r>    2.6573    1.0000 </r>
       <r>    2.6573    1.0000 </r>
       <r>    4.1485    1.0000 </r>
       <r>    7.8725    1.0000 </r>
       <r>    9.3225    1.0000 </r>
       <r>    9.3225    1.0000 </r>
       <r>   10.2228    1.0000 </r>
       <r>   11.6533    0.0000 </r>
       <r>   11.6533    0.0000 </r>
       <r>   14.3569    0.0000 </r>
       <r>   14.9534    0.0000 </r>
       <r>   14.9534    0.0000 </r>
       <r>   15.5987    0.0000 </r>
       <r>   18.0576    0.0000 </r>
       <r>   18.6616    0.0000 </r>
      </set>
      <set comment="kpoint 56">
       <r>   -2.2798    1.0000 </r>
       <r>    1.5540    1.0000 </r>
       <r>    3.0625    1.0000 </r>
       <r>    4.5469    1.0000 </r>
       <r>    6.8082    1.0000 </r>
       <r>    8.2633    1.0000 </r>
       <r>    9.7194    1.0000 </r>
       <r>   10.6088    1.0000 </r>
       <r>   12.0272    0.0000 </r>
       <r>   13.3258    0.0000 </r>
       <r>   13.4511    0.0000 </r>
       <r>   14.1159    0.0000 </r>
       <r>   15.3204    0.0000 </r>
       <r>   15.3318    0.0000 </r>
       <r>   18.6513    0.0000 </r>
       <r>   19.0474    0.0000 </r>
      </set>
      <set comment="kpoint 57">
       <r>   -1.7443    1.0000 </r>
       <r>    0.5593    1.0000 </r>
       <r>    3.5816    1.0000 </r>
       <r>    5.0422    1.0000 </r>
       <r>    5.8635    1.0000 </r>
       <r>    7.3065    1.0000 </r>
       <r>   10.2251    1.0000 </r>
       <r>   11.1039    0.9054 </r>
       <r>   12.3928    0.0000 </r>
       <r>   12.4770    0.0000 </r>
       <r>   13.2924    0.0000 </r>
       <r>   14.5879    0.0000 </r>
       <r>   15.2811    0.0000 </r>
       <r>   15.8576    0.0000 </r>
       <r>   17.7985    0.0000 </r>
       <r>   19.5402    0.0000 </r>
      </set>
      <set comment="kpoint 58">
       <r>   -1.0917    1.0000 </r>
       <r>   -0.3233    1.0000 </r>
       <r>    4.2120    1.0000 </r>
       <r>    4.9372    1.0000 </r>
       <r>    5.7402    1.0000 </r>
       <r>    6.4594    1.0000 </r>
       <r>   10.8401    0.9998 </r>
       <r>   11.5633    0.0000 </r>
       <r>   11.7005    0.0000 </r>
       <r>   12.3670    0.0000 </r>
       <r>   13.1975    0.0000 </r>
       <r>   13.8430    0.0000 </r>
       <r>   16.3260    0.0000 </r>
       <r>   17.0233    0.0000 </r>
       <r>   17.3079    0.0000 </r>
       <r>   19.1375    0.0000 </r>
      </set>
      <set comment="kpoint 59">
       <r>   -1.8632    1.0000 </r>
       <r>    1.9620    1.0000 </r>
       <r>    1.9620    1.0000 </r>
       <r>    4.9267    1.0000 </r>
       <r>    5.7530    1.0000 </r>
       <r>    8.6599    1.0000 </r>
       <r>    8.6599    1.0000 </r>
       <r>   10.9974    1.0102 </r>
       <r>   12.2868    0.0000 </r>
       <r>   13.7811    0.0000 </r>
       <r>   13.7811    0.0000 </r>
       <r>   14.5403    0.0000 </r>
       <r>   14.5403    0.0000 </r>
       <r>   16.3224    0.0000 </r>
       <r>   17.8113    0.0000 </r>
       <r>   18.8808    0.0000 </r>
      </set>
      <set comment="kpoint 60">
       <r>   -1.3289    1.0000 </r>
       <r>    0.9696    1.0000 </r>
       <r>    2.4850    1.0000 </r>
       <r>    4.7091    1.0000 </r>
       <r>    5.5139    1.0000 </r>
       <r>    7.7034    1.0000 </r>
       <r>    9.1676    1.0000 </r>
       <r>   11.3477    0.0049 </r>
       <r>   11.4936    0.0000 </r>
       <r>   13.5428    0.0000 </r>
       <r>   14.3970    0.0000 </r>
       <r>   14.8877    0.0000 </r>
       <r>   15.7895    0.0000 </r>
       <r>   16.1645    0.0000 </r>
       <r>   16.9698    0.0000 </r>
       <r>   19.9996    0.0000 </r>
      </set>
      <set comment="kpoint 61">
       <r>   -0.6778    1.0000 </r>
       <r>    0.0889    1.0000 </r>
       <r>    3.1217    1.0000 </r>
       <r>    3.8689    1.0000 </r>
       <r>    6.1193    1.0000 </r>
       <r>    6.8551    1.0000 </r>
       <r>    9.7857    1.0000 </r>
       <r>   10.5131    1.0000 </r>
       <r>   12.0934    0.0000 </r>
       <r>   12.7885    0.0000 </r>
       <r>   14.9264    0.0000 </r>
       <r>   15.5066    0.0000 </r>
       <r>   15.5535    0.0000 </r>
       <r>   16.1960    0.0000 </r>
       <r>   17.6664    0.0000 </r>
       <r>   19.5242    0.0000 </r>
      </set>
      <set comment="kpoint 62">
       <r>   -0.7961    1.0000 </r>
       <r>    1.4958    1.0000 </r>
       <r>    1.4958    1.0000 </r>
       <r>    3.7541    1.0000 </r>
       <r>    6.0057    1.0000 </r>
       <r>    8.2128    1.0000 </r>
       <r>    8.2128    1.0000 </r>
       <r>   10.4034    1.0000 </r>
       <r>   11.9893    0.0000 </r>
       <r>   14.0671    0.0000 </r>
       <r>   14.0671    0.0000 </r>
       <r>   16.1292    0.0000 </r>
       <r>   16.2119    0.0000 </r>
       <r>   16.2119    0.0000 </r>
       <r>   17.2460    0.0000 </r>
       <r>   19.8967    0.0000 </r>
      </set>
      <set comment="kpoint 63">
       <r>   -0.1468    1.0000 </r>
       <r>    0.6177    1.0000 </r>
       <r>    2.1367    1.0000 </r>
       <r>    2.8907    1.0000 </r>
       <r>    6.6286    1.0000 </r>
       <r>    7.3654    1.0000 </r>
       <r>    8.8336    1.0000 </r>
       <r>    9.5644    1.0000 </r>
       <r>   12.5888    0.0000 </r>
       <r>   13.2858    0.0000 </r>
       <r>   14.6637    0.0000 </r>
       <r>   15.3531    0.0000 </r>
       <r>   16.7216    0.0000 </r>
       <r>   17.2089    0.0000 </r>
       <r>   18.0700    0.0000 </r>
       <r>   19.8020    0.0000 </r>
      </set>
      <set comment="kpoint 64">
       <r>    0.5002    1.0000 </r>
       <r>    1.2620    1.0000 </r>
       <r>    1.2620    1.0000 </r>
       <r>    2.0203    1.0000 </r>
       <r>    7.2525    1.0000 </r>
       <r>    7.9882    1.0000 </r>
       <r>    7.9882    1.0000 </r>
       <r>    8.7219    1.0000 </r>
       <r>   13.1864    0.0000 </r>
       <r>   13.8816    0.0000 </r>
       <r>   13.8816    0.0000 </r>
       <r>   14.5738    0.0000 </r>
       <r>   18.3583    0.0000 </r>
       <r>   18.4371    0.0000 </r>
       <r>   18.4371    0.0000 </r>
       <r>   19.6284    0.0000 </r>
      </set>
      <set comment="kpoint 65">
       <r>   -2.3990    1.0000 </r>
       <r>    2.9465    1.0000 </r>
       <r>    2.9465    1.0000 </r>
       <r>    2.9465    1.0000 </r>
       <r>    8.1595    1.0000 </r>
       <r>    8.1595    1.0000 </r>
       <r>    8.1595    1.0000 </r>
       <r>   11.9273    0.0000 </r>
       <r>   11.9273    0.0000 </r>
       <r>   11.9273    0.0000 </r>
       <r>   13.2254    0.0000 </r>
       <r>   15.8590    0.0000 </r>
       <r>   15.8590    0.0000 </r>
       <r>   15.8590    0.0000 </r>
       <r>   18.3377    0.0000 </r>
       <r>   18.3377    0.0000 </r>
      </set>
      <set comment="kpoint 66">
       <r>   -1.9822    1.0000 </r>
       <r>    1.8453    1.0000 </r>
       <r>    3.3500    1.0000 </r>
       <r>    3.3500    1.0000 </r>
       <r>    7.0920    1.0000 </r>
       <r>    7.0920    1.0000 </r>
       <r>    8.5565    1.0000 </r>
       <r>   12.1857    0.0000 </r>
       <r>   12.3082    0.0000 </r>
       <r>   12.3082    0.0000 </r>
       <r>   13.7254    0.0000 </r>
       <r>   15.5874    0.0000 </r>
       <r>   15.5874    0.0000 </r>
       <r>   16.2230    0.0000 </r>
       <r>   18.7275    0.0000 </r>
       <r>   19.3711    0.0000 </r>
      </set>
      <set comment="kpoint 67">
       <r>   -1.4476    1.0000 </r>
       <r>    0.8523    1.0000 </r>
       <r>    3.8652    1.0000 </r>
       <r>    3.8652    1.0000 </r>
       <r>    6.1315    1.0000 </r>
       <r>    6.1315    1.0000 </r>
       <r>    9.0646    1.0000 </r>
       <r>   11.2461   -0.0515 </r>
       <r>   12.7895    0.0000 </r>
       <r>   12.7895    0.0000 </r>
       <r>   14.8652    0.0000 </r>
       <r>   14.8652    0.0000 </r>
       <r>   15.5888    0.0000 </r>
       <r>   16.6903    0.0000 </r>
       <r>   18.6973    0.0000 </r>
       <r>   19.2304    0.0000 </r>
      </set>
      <set comment="kpoint 68">
       <r>   -0.7960    1.0000 </r>
       <r>   -0.0289    1.0000 </r>
       <r>    4.4741    1.0000 </r>
       <r>    4.4741    1.0000 </r>
       <r>    5.2993    1.0000 </r>
       <r>    5.2993    1.0000 </r>
       <r>    9.6831    1.0000 </r>
       <r>   10.4110    1.0000 </r>
       <r>   13.3390    0.0000 </r>
       <r>   13.3390    0.0000 </r>
       <r>   14.1569    0.0000 </r>
       <r>   14.1569    0.0000 </r>
       <r>   17.2597    0.0000 </r>
       <r>   17.4635    0.0000 </r>
       <r>   17.9298    0.0000 </r>
       <r>   19.1707    0.0000 </r>
      </set>
      <set comment="kpoint 69">
       <r>   -1.5664    1.0000 </r>
       <r>    2.2521    1.0000 </r>
       <r>    2.2521    1.0000 </r>
       <r>    3.7494    1.0000 </r>
       <r>    6.0207    1.0000 </r>
       <r>    7.4896    1.0000 </r>
       <r>    7.4896    1.0000 </r>
       <r>   11.1389    0.5996 </r>
       <r>   12.6917    0.0000 </r>
       <r>   14.0935    0.0000 </r>
       <r>   14.0935    0.0000 </r>
       <r>   15.9641    0.0000 </r>
       <r>   15.9641    0.0000 </r>
       <r>   16.5817    0.0000 </r>
       <r>   19.1504    0.0000 </r>
       <r>   19.1598    0.0000 </r>
      </set>
      <set comment="kpoint 70">
       <r>   -1.0329    1.0000 </r>
       <r>    1.2617    1.0000 </r>
       <r>    2.7732    1.0000 </r>
       <r>    4.2419    1.0000 </r>
       <r>    5.0760    1.0000 </r>
       <r>    6.5277    1.0000 </r>
       <r>    7.9997    1.0000 </r>
       <r>   10.1933    1.0000 </r>
       <r>   13.1776    0.0000 </r>
       <r>   14.5222    0.0000 </r>
       <r>   15.2885    0.0000 </r>
       <r>   15.8993    0.0000 </r>
       <r>   16.4291    0.0000 </r>
       <r>   16.4881    0.0000 </r>
       <r>   18.3815    0.0000 </r>
       <r>   20.2171    0.0000 </r>
      </set>
      <set comment="kpoint 71">
       <r>   -0.3828    1.0000 </r>
       <r>    0.3826    1.0000 </r>
       <r>    3.4054    1.0000 </r>
       <r>    4.1292    1.0000 </r>
       <r>    4.9591    1.0000 </r>
       <r>    5.6773    1.0000 </r>
       <r>    8.6214    1.0000 </r>
       <r>    9.3532    1.0000 </r>
       <r>   13.7578    0.0000 </r>
       <r>   14.3954    0.0000 </r>
       <r>   15.2367    0.0000 </r>
       <r>   15.8278    0.0000 </r>
       <r>   16.9426    0.0000 </r>
       <r>   17.6305    0.0000 </r>
       <r>   17.8919    0.0000 </r>
       <r>   19.6214    0.0000 </r>
      </set>
      <set comment="kpoint 72">
       <r>   -0.5010    1.0000 </r>
       <r>    1.7864    1.0000 </r>
       <r>    1.7864    1.0000 </r>
       <r>    4.0138    1.0000 </r>
       <r>    4.8455    1.0000 </r>
       <r>    7.0391    1.0000 </r>
       <r>    7.0391    1.0000 </r>
       <r>    9.2426    1.0000 </r>
       <r>   13.6646    0.0000 </r>
       <r>   15.6213    0.0000 </r>
       <r>   15.6213    0.0000 </r>
       <r>   16.5063    0.0000 </r>
       <r>   16.5063    0.0000 </r>
       <r>   17.5025    0.0000 </r>
       <r>   17.6454    0.0000 </r>
       <r>   20.1484    0.0000 </r>
      </set>
      <set comment="kpoint 73">
       <r>    0.1471    1.0000 </r>
       <r>    0.9102    1.0000 </r>
       <r>    2.4251    1.0000 </r>
       <r>    3.1743    1.0000 </r>
       <r>    5.4496    1.0000 </r>
       <r>    6.1875    1.0000 </r>
       <r>    7.6632    1.0000 </r>
       <r>    8.3983    1.0000 </r>
       <r>   14.2482    0.0000 </r>
       <r>   14.9158    0.0000 </r>
       <r>   16.2340    0.0000 </r>
       <r>   16.9073    0.0000 </r>
       <r>   16.9884    0.0000 </r>
       <r>   17.4682    0.0000 </r>
       <r>   18.3113    0.0000 </r>
       <r>   19.9802    0.0000 </r>
      </set>
      <set comment="kpoint 74">
       <r>    0.7929    1.0000 </r>
       <r>    1.5529    1.0000 </r>
       <r>    1.5529    1.0000 </r>
       <r>    2.3089    1.0000 </r>
       <r>    6.0738    1.0000 </r>
       <r>    6.8130    1.0000 </r>
       <r>    6.8130    1.0000 </r>
       <r>    7.5506    1.0000 </r>
       <r>   14.8322    0.0000 </r>
       <r>   15.5025    0.0000 </r>
       <r>   15.5025    0.0000 </r>
       <r>   16.1726    0.0000 </r>
       <r>   18.6064    0.0000 </r>
       <r>   18.6815    0.0000 </r>
       <r>   18.6815    0.0000 </r>
       <r>   19.8435    0.0000 </r>
      </set>
      <set comment="kpoint 75">
       <r>   -1.1514    1.0000 </r>
       <r>    2.6568    1.0000 </r>
       <r>    2.6568    1.0000 </r>
       <r>    2.6568    1.0000 </r>
       <r>    6.4172    1.0000 </r>
       <r>    6.4172    1.0000 </r>
       <r>    6.4172    1.0000 </r>
       <r>   10.0852    1.0000 </r>
       <r>   14.4720    0.0000 </r>
       <r>   14.4720    0.0000 </r>
       <r>   14.4720    0.0000 </r>
       <r>   16.9438    0.0000 </r>
       <r>   16.9438    0.0000 </r>
       <r>   16.9438    0.0000 </r>
       <r>   19.5239    0.0000 </r>
       <r>   19.5239    0.0000 </r>
      </set>
      <set comment="kpoint 76">
       <r>   -0.6192    1.0000 </r>
       <r>    1.6695    1.0000 </r>
       <r>    3.1730    1.0000 </r>
       <r>    3.1730    1.0000 </r>
       <r>    5.4534    1.0000 </r>
       <r>    5.4534    1.0000 </r>
       <r>    6.9288    1.0000 </r>
       <r>    9.1338    1.0000 </r>
       <r>   14.9386    0.0000 </r>
       <r>   14.9386    0.0000 </r>
       <r>   16.3054    0.0000 </r>
       <r>   16.8019    0.0000 </r>
       <r>   16.8019    0.0000 </r>
       <r>   17.4077    0.0000 </r>
       <r>   19.3767    0.0000 </r>
       <r>   19.9976    0.0000 </r>
      </set>
      <set comment="kpoint 77">
       <r>    0.0293    1.0000 </r>
       <r>    0.7928    1.0000 </r>
       <r>    3.7799    1.0000 </r>
       <r>    3.7799    1.0000 </r>
       <r>    4.6221    1.0000 </r>
       <r>    4.6221    1.0000 </r>
       <r>    7.5534    1.0000 </r>
       <r>    8.2890    1.0000 </r>
       <r>   15.4552    0.0000 </r>
       <r>   15.4552    0.0000 </r>
       <r>   16.2458    0.0000 </r>
       <r>   16.2458    0.0000 </r>
       <r>   17.9714    0.0000 </r>
       <r>   18.1226    0.0000 </r>
       <r>   18.6305    0.0000 </r>
       <r>   19.6888    0.0000 </r>
      </set>
      <set comment="kpoint 78">
       <r>   -0.0886    1.0000 </r>
       <r>    2.1919    1.0000 </r>
       <r>    2.1919    1.0000 </r>
       <r>    3.6632    1.0000 </r>
       <r>    4.5094    1.0000 </r>
       <r>    5.9640    1.0000 </r>
       <r>    5.9640    1.0000 </r>
       <r>    8.1776    1.0000 </r>
       <r>   15.4151    0.0000 </r>
       <r>   16.7034    0.0000 </r>
       <r>   16.7034    0.0000 </r>
       <r>   17.3189    0.0000 </r>
       <r>   17.3189    0.0000 </r>
       <r>   17.8596    0.0000 </r>
       <r>   19.0811    0.0000 </r>
       <r>   20.4889    0.0000 </r>
      </set>
      <set comment="kpoint 79">
       <r>    0.5578    1.0000 </r>
       <r>    1.3187    1.0000 </r>
       <r>    2.8252    1.0000 </r>
       <r>    3.5477    1.0000 </r>
       <r>    4.3947    1.0000 </r>
       <r>    5.1116    1.0000 </r>
       <r>    6.5902    1.0000 </r>
       <r>    7.3289    1.0000 </r>
       <r>   15.9694    0.0000 </r>
       <r>   16.5546    0.0000 </r>
       <r>   17.3860    0.0000 </r>
       <r>   17.7490    0.0000 </r>
       <r>   17.8314    0.0000 </r>
       <r>   18.4117    0.0000 </r>
       <r>   18.6242    0.0000 </r>
       <r>   20.1260    0.0000 </r>
      </set>
      <set comment="kpoint 80">
       <r>    1.2016    1.0000 </r>
       <r>    1.9587    1.0000 </r>
       <r>    1.9587    1.0000 </r>
       <r>    2.7090    1.0000 </r>
       <r>    4.9975    1.0000 </r>
       <r>    5.7367    1.0000 </r>
       <r>    5.7367    1.0000 </r>
       <r>    6.4771    1.0000 </r>
       <r>   16.5338    0.0000 </r>
       <r>   17.1538    0.0000 </r>
       <r>   17.1538    0.0000 </r>
       <r>   17.7868    0.0000 </r>
       <r>   18.9470    0.0000 </r>
       <r>   19.0120    0.0000 </r>
       <r>   19.0120    0.0000 </r>
       <r>   20.1052    0.0000 </r>
      </set>
      <set comment="kpoint 81">
       <r>    0.4402    1.0000 </r>
       <r>    2.7086    1.0000 </r>
       <r>    2.7086    1.0000 </r>
       <r>    2.7086    1.0000 </r>
       <r>    4.9985    1.0000 </r>
       <r>    4.9985    1.0000 </r>
       <r>    4.9985    1.0000 </r>
       <r>    7.2169    1.0000 </r>
       <r>   17.1970    0.0000 </r>
       <r>   17.1970    0.0000 </r>
       <r>   17.1970    0.0000 </r>
       <r>   18.3142    0.0000 </r>
       <r>   18.3142    0.0000 </r>
       <r>   18.3142    0.0000 </r>
       <r>   20.1352    0.0000 </r>
       <r>   20.1352    0.0000 </r>
      </set>
      <set comment="kpoint 82">
       <r>    1.0843    1.0000 </r>
       <r>    1.8417    1.0000 </r>
       <r>    3.3139    1.0000 </r>
       <r>    3.3139    1.0000 </r>
       <r>    4.1682    1.0000 </r>
       <r>    4.1682    1.0000 </r>
       <r>    5.6238    1.0000 </r>
       <r>    6.3646    1.0000 </r>
       <r>   17.6646    0.0000 </r>
       <r>   17.6646    0.0000 </r>
       <r>   18.3237    0.0000 </r>
       <r>   18.3237    0.0000 </r>
       <r>   18.8598    0.0000 </r>
       <r>   18.9054    0.0000 </r>
       <r>   19.4808    0.0000 </r>
       <r>   20.1531    0.0000 </r>
      </set>
      <set comment="kpoint 83">
       <r>    1.7248    1.0000 </r>
       <r>    2.4757    1.0000 </r>
       <r>    2.4757    1.0000 </r>
       <r>    3.1971    1.0000 </r>
       <r>    4.0544    1.0000 </r>
       <r>    4.7703    1.0000 </r>
       <r>    4.7703    1.0000 </r>
       <r>    5.5101    1.0000 </r>
       <r>   18.2214    0.0000 </r>
       <r>   18.7101    0.0000 </r>
       <r>   18.7101    0.0000 </r>
       <r>   19.2804    0.0000 </r>
       <r>   19.3670    0.0000 </r>
       <r>   19.4036    0.0000 </r>
       <r>   19.4036    0.0000 </r>
       <r>   20.3081    0.0000 </r>
      </set>
      <set comment="kpoint 84">
       <r>    2.3589    1.0000 </r>
       <r>    3.0800    1.0000 </r>
       <r>    3.0800    1.0000 </r>
       <r>    3.0800    1.0000 </r>
       <r>    3.9407    1.0000 </r>
       <r>    3.9407    1.0000 </r>
       <r>    3.9407    1.0000 </r>
       <r>    4.6563    1.0000 </r>
       <r>   19.6981    0.0000 </r>
       <r>   19.6981    0.0000 </r>
       <r>   19.6981    0.0000 </r>
       <r>   19.8301    0.0000 </r>
       <r>   19.8301    0.0000 </r>
       <r>   19.8301    0.0000 </r>
       <r>   20.2217    0.0000 </r>
       <r>   20.2217    0.0000 </r>
      </set>
     </set>
    </set>
   </array>
  </eigenvalues>
  <separator name="orbital magnetization" >
   <v name="MAGDIPOLOUT">      0.00000000      0.00000000      0.00000000</v>
  </separator>
  <dos>
   <i name="efermi">     11.14837813 </i>
   <total>
    <array>
     <dimension dim="1">gridpoints</dimension>
     <dimension dim="2">spin</dimension>
     <field>energy</field>
     <field>total</field>
     <field>integrated</field>
     <set>
      <set comment="spin 1">
       <r>    -5.2447     0.0000     0.0000 </r>
       <r>    -5.1545     0.0000     0.0000 </r>
       <r>    -5.0643     0.0000     0.0000 </r>
       <r>    -4.9742     0.0000     0.0000 </r>
       <r>    -4.8840     0.0000     0.0000 </r>
       <r>    -4.7938     0.0000     0.0000 </r>
       <r>    -4.7036     0.0000     0.0000 </r>
       <r>    -4.6135     0.0000     0.0000 </r>
       <r>    -4.5233     0.0000     0.0000 </r>
       <r>    -4.4331     0.0000     0.0000 </r>
       <r>    -4.3430     0.0000     0.0000 </r>
       <r>    -4.2528     0.0001     0.0000 </r>
       <r>    -4.1626     0.0003     0.0000 </r>
       <r>    -4.0725    -0.0020    -0.0001 </r>
       <r>    -3.9823     0.0173     0.0014 </r>
       <r>    -3.8921     0.1202     0.0123 </r>
       <r>    -3.8020     0.1280     0.0238 </r>
       <r>    -3.7118     0.2079     0.0425 </r>
       <r>    -3.6216     0.3071     0.0702 </r>
       <r>    -3.5315     0.1105     0.0802 </r>
       <r>    -3.4413     0.3508     0.1118 </r>
       <r>    -3.3511     0.3788     0.1460 </r>
       <r>    -3.2610     0.2241     0.1662 </r>
       <r>    -3.1708     0.4742     0.2089 </r>
       <r>    -3.0806     0.2316     0.2298 </r>
       <r>    -2.9905     0.3197     0.2587 </r>
       <r>    -2.9003     0.5874     0.3116 </r>
       <r>    -2.8101     0.3904     0.3468 </r>
       <r>    -2.7200     0.5697     0.3982 </r>
       <r>    -2.6298     0.2551     0.4212 </r>
       <r>    -2.5396     0.2402     0.4428 </r>
       <r>    -2.4494     0.7527     0.5107 </r>
       <r>    -2.3593     0.5429     0.5597 </r>
       <r>    -2.2691     0.5265     0.6071 </r>
       <r>    -2.1789     0.6939     0.6697 </r>
       <r>    -2.0888     0.1342     0.6818 </r>
       <r>    -1.9986     0.5960     0.7356 </r>
       <r>    -1.9084     0.7468     0.8029 </r>
       <r>    -1.8183     0.4939     0.8474 </r>
       <r>    -1.7281     0.6658     0.9075 </r>
       <r>    -1.6379     0.3304     0.9373 </r>
       <r>    -1.5478     0.8747     1.0161 </r>
       <r>    -1.4576     0.8198     1.0900 </r>
       <r>    -1.3674     0.4179     1.1277 </r>
       <r>    -1.2773     0.8827     1.2073 </r>
       <r>    -1.1871     0.3236     1.2365 </r>
       <r>    -1.0969     0.2875     1.2624 </r>
       <r>    -1.0068     1.0652     1.3585 </r>
       <r>    -0.9166     0.6978     1.4214 </r>
       <r>    -0.8264     0.9089     1.5033 </r>
       <r>    -0.7363     0.9292     1.5871 </r>
       <r>    -0.6461     0.4842     1.6308 </r>
       <r>    -0.5559     0.6516     1.6895 </r>
       <r>    -0.4658     0.6435     1.7475 </r>
       <r>    -0.3756     0.6456     1.8058 </r>
       <r>    -0.2854     1.0865     1.9037 </r>
       <r>    -0.1953     0.2033     1.9221 </r>
       <r>    -0.1051     1.1278     2.0237 </r>
       <r>    -0.0149     0.9907     2.1131 </r>
       <r>     0.0753     0.8251     2.1875 </r>
       <r>     0.1654     1.0273     2.2801 </r>
       <r>     0.2556     0.2466     2.3024 </r>
       <r>     0.3458     0.7498     2.3700 </r>
       <r>     0.4359     1.3688     2.4934 </r>
       <r>     0.5261     0.7664     2.5625 </r>
       <r>     0.6163     1.0418     2.6564 </r>
       <r>     0.7064     0.3046     2.6839 </r>
       <r>     0.7966     0.7385     2.7505 </r>
       <r>     0.8868     1.1234     2.8518 </r>
       <r>     0.9769     0.8596     2.9293 </r>
       <r>     1.0671     1.0295     3.0221 </r>
       <r>     1.1573     0.8690     3.1005 </r>
       <r>     1.2474     0.6972     3.1633 </r>
       <r>     1.3376     1.9460     3.3388 </r>
       <r>     1.4278     0.7486     3.4063 </r>
       <r>     1.5179     0.5199     3.4532 </r>
       <r>     1.6081     0.9175     3.5359 </r>
       <r>     1.6983     0.2740     3.5606 </r>
       <r>     1.7884     1.0562     3.6558 </r>
       <r>     1.8786     1.1681     3.7612 </r>
       <r>     1.9688     1.4155     3.8888 </r>
       <r>     2.0589     1.1195     3.9897 </r>
       <r>     2.1491     0.5537     4.0397 </r>
       <r>     2.2393     1.3621     4.1625 </r>
       <r>     2.3294     1.0774     4.2596 </r>
       <r>     2.4196     0.8545     4.3367 </r>
       <r>     2.5098     1.5386     4.4754 </r>
       <r>     2.6000     0.3266     4.5049 </r>
       <r>     2.6901     0.9670     4.5921 </r>
       <r>     2.7803     1.2589     4.7056 </r>
       <r>     2.8705     1.1723     4.8113 </r>
       <r>     2.9606     1.3906     4.9367 </r>
       <r>     3.0508     0.4799     4.9799 </r>
       <r>     3.1410     1.1357     5.0823 </r>
       <r>     3.2311     1.4056     5.2091 </r>
       <r>     3.3213     0.6764     5.2701 </r>
       <r>     3.4115     1.8075     5.4330 </r>
       <r>     3.5016     0.7395     5.4997 </r>
       <r>     3.5918     1.0288     5.5925 </r>
       <r>     3.6820     1.4270     5.7212 </r>
       <r>     3.7721     1.2345     5.8325 </r>
       <r>     3.8623     1.1513     5.9363 </r>
       <r>     3.9525     0.9542     6.0223 </r>
       <r>     4.0426     0.9201     6.1053 </r>
       <r>     4.1328     1.4155     6.2329 </r>
       <r>     4.2230     1.3805     6.3574 </r>
       <r>     4.3131     0.9082     6.4393 </r>
       <r>     4.4033     0.2982     6.4662 </r>
       <r>     4.4935     1.0564     6.5614 </r>
       <r>     4.5836     1.8407     6.7274 </r>
       <r>     4.6738     1.4976     6.8624 </r>
       <r>     4.7640     1.4954     6.9972 </r>
       <r>     4.8541     1.2395     7.1090 </r>
       <r>     4.9443     1.1709     7.2146 </r>
       <r>     5.0345     1.6947     7.3674 </r>
       <r>     5.1247     1.2279     7.4781 </r>
       <r>     5.2148     0.8545     7.5552 </r>
       <r>     5.3050     0.7237     7.6204 </r>
       <r>     5.3952     1.1300     7.7223 </r>
       <r>     5.4853     1.7885     7.8836 </r>
       <r>     5.5755     1.5823     8.0263 </r>
       <r>     5.6657     1.2015     8.1346 </r>
       <r>     5.7558     1.3423     8.2556 </r>
       <r>     5.8460     1.3209     8.3747 </r>
       <r>     5.9362     1.4810     8.5083 </r>
       <r>     6.0263     1.4683     8.6407 </r>
       <r>     6.1165     1.2521     8.7536 </r>
       <r>     6.2067     1.4074     8.8805 </r>
       <r>     6.2968     0.5896     8.9336 </r>
       <r>     6.3870     0.8070     9.0064 </r>
       <r>     6.4772     1.4550     9.1376 </r>
       <r>     6.5673     1.6643     9.2876 </r>
       <r>     6.6575     1.2959     9.4045 </r>
       <r>     6.7477     1.1543     9.5086 </r>
       <r>     6.8378     2.2071     9.7076 </r>
       <r>     6.9280     1.2275     9.8183 </r>
       <r>     7.0182     1.1321     9.9203 </r>
       <r>     7.1083     1.4111    10.0476 </r>
       <r>     7.1985     0.4948    10.0922 </r>
       <r>     7.2887     1.4025    10.2187 </r>
       <r>     7.3789     1.8551    10.3859 </r>
       <r>     7.4690     1.5354    10.5244 </r>
       <r>     7.5592     1.0471    10.6188 </r>
       <r>     7.6494     0.8723    10.6974 </r>
       <r>     7.7395     1.8694    10.8660 </r>
       <r>     7.8297     1.0435    10.9601 </r>
       <r>     7.9199     1.6109    11.1053 </r>
       <r>     8.0100     1.6779    11.2566 </r>
       <r>     8.1002     1.4158    11.3843 </r>
       <r>     8.1904     1.7568    11.5427 </r>
       <r>     8.2805     2.1901    11.7402 </r>
       <r>     8.3707     1.2823    11.8558 </r>
       <r>     8.4609     0.6326    11.9128 </r>
       <r>     8.5510     1.3603    12.0355 </r>
       <r>     8.6412     1.7890    12.1968 </r>
       <r>     8.7314     1.1850    12.3036 </r>
       <r>     8.8215     0.9253    12.3871 </r>
       <r>     8.9117     1.1375    12.4896 </r>
       <r>     9.0019     1.4485    12.6203 </r>
       <r>     9.0920     2.1079    12.8103 </r>
       <r>     9.1822     1.6665    12.9606 </r>
       <r>     9.2724     2.0928    13.1493 </r>
       <r>     9.3625     1.2347    13.2606 </r>
       <r>     9.4527     1.3201    13.3797 </r>
       <r>     9.5429     2.2985    13.5869 </r>
       <r>     9.6330     1.2763    13.7020 </r>
       <r>     9.7232     1.2483    13.8145 </r>
       <r>     9.8134     1.0691    13.9109 </r>
       <r>     9.9036     1.4525    14.0419 </r>
       <r>     9.9937     1.6463    14.1903 </r>
       <r>    10.0839     1.3384    14.3110 </r>
       <r>    10.1741     2.0984    14.5002 </r>
       <r>    10.2642     2.1426    14.6934 </r>
       <r>    10.3544     1.2830    14.8091 </r>
       <r>    10.4446     1.6794    14.9605 </r>
       <r>    10.5347     1.9482    15.1362 </r>
       <r>    10.6249     1.9411    15.3112 </r>
       <r>    10.7151     0.5141    15.3576 </r>
       <r>    10.8052     0.9588    15.4440 </r>
       <r>    10.8954     1.8615    15.6119 </r>
       <r>    10.9856     1.1902    15.7192 </r>
       <r>    11.0757     1.9724    15.8971 </r>
       <r>    11.1659     1.3998    16.0233 </r>
       <r>    11.2561     1.7516    16.1812 </r>
       <r>    11.3462     2.3800    16.3958 </r>
       <r>    11.4364     2.4743    16.6189 </r>
       <r>    11.5266     2.2486    16.8217 </r>
       <r>    11.6167     1.1879    16.9288 </r>
       <r>    11.7069     1.6202    17.0749 </r>
       <r>    11.7971     1.7103    17.2291 </r>
       <r>    11.8872     0.6118    17.2843 </r>
       <r>    11.9774     1.1862    17.3912 </r>
       <r>    12.0676     2.3790    17.6057 </r>
       <r>    12.1577     2.0823    17.7935 </r>
       <r>    12.2479     1.4204    17.9216 </r>
       <r>    12.3381     1.3769    18.0457 </r>
       <r>    12.4283     2.6054    18.2806 </r>
       <r>    12.5184     1.3743    18.4046 </r>
       <r>    12.6086     1.7058    18.5584 </r>
       <r>    12.6988     1.7763    18.7185 </r>
       <r>    12.7889     2.0648    18.9047 </r>
       <r>    12.8791     1.7779    19.0650 </r>
       <r>    12.9693     1.3143    19.1835 </r>
       <r>    13.0594     1.7541    19.3417 </r>
       <r>    13.1496     1.4669    19.4740 </r>
       <r>    13.2398     2.6629    19.7141 </r>
       <r>    13.3299     2.1818    19.9108 </r>
       <r>    13.4201     1.7382    20.0675 </r>
       <r>    13.5103     1.5567    20.2079 </r>
       <r>    13.6004     1.7947    20.3697 </r>
       <r>    13.6906     2.4674    20.5922 </r>
       <r>    13.7808     2.1162    20.7830 </r>
       <r>    13.8709     2.0542    20.9682 </r>
       <r>    13.9611     1.2180    21.0781 </r>
       <r>    14.0513     1.5119    21.2144 </r>
       <r>    14.1414     2.7598    21.4632 </r>
       <r>    14.2316     1.5565    21.6036 </r>
       <r>    14.3218     1.2298    21.7145 </r>
       <r>    14.4119     1.9785    21.8929 </r>
       <r>    14.5021     2.4343    22.1124 </r>
       <r>    14.5923     3.1275    22.3943 </r>
       <r>    14.6824     1.8646    22.5625 </r>
       <r>    14.7726     2.2040    22.7612 </r>
       <r>    14.8628     1.8601    22.9289 </r>
       <r>    14.9530     3.4343    23.2386 </r>
       <r>    15.0431     1.8370    23.4042 </r>
       <r>    15.1333     0.9044    23.4858 </r>
       <r>    15.2235     0.8813    23.5652 </r>
       <r>    15.3136     2.1365    23.7579 </r>
       <r>    15.4038     2.8675    24.0164 </r>
       <r>    15.4940     2.6516    24.2555 </r>
       <r>    15.5841     2.8440    24.5120 </r>
       <r>    15.6743     2.2870    24.7182 </r>
       <r>    15.7645     1.0916    24.8166 </r>
       <r>    15.8546     1.3748    24.9406 </r>
       <r>    15.9448     2.2828    25.1464 </r>
       <r>    16.0350     1.7671    25.3057 </r>
       <r>    16.1251     0.8687    25.3841 </r>
       <r>    16.2153     2.1883    25.5814 </r>
       <r>    16.3055     1.8450    25.7477 </r>
       <r>    16.3956     0.9858    25.8366 </r>
       <r>    16.4858     1.8239    26.0011 </r>
       <r>    16.5760     2.9990    26.2715 </r>
       <r>    16.6661     2.0396    26.4554 </r>
       <r>    16.7563     2.0681    26.6419 </r>
       <r>    16.8465     0.9226    26.7251 </r>
       <r>    16.9366     1.7164    26.8798 </r>
       <r>    17.0268     2.7257    27.1256 </r>
       <r>    17.1170     1.5026    27.2611 </r>
       <r>    17.2072     1.5942    27.4048 </r>
       <r>    17.2973     1.5368    27.5434 </r>
       <r>    17.3875     2.2718    27.7482 </r>
       <r>    17.4777     2.2885    27.9546 </r>
       <r>    17.5678     1.2191    28.0645 </r>
       <r>    17.6580     1.5520    28.2045 </r>
       <r>    17.7482     1.5938    28.3482 </r>
       <r>    17.8383     2.2550    28.5515 </r>
       <r>    17.9285     2.4765    28.7748 </r>
       <r>    18.0187     1.0513    28.8696 </r>
       <r>    18.1088     1.3037    28.9871 </r>
       <r>    18.1990     1.3243    29.1065 </r>
       <r>    18.2892     2.4837    29.3305 </r>
       <r>    18.3793     2.5350    29.5591 </r>
       <r>    18.4695     1.7367    29.7157 </r>
       <r>    18.5597     0.4860    29.7595 </r>
       <r>    18.6498     1.4637    29.8915 </r>
       <r>    18.7400     2.4055    30.1084 </r>
       <r>    18.8302     1.3832    30.2331 </r>
       <r>    18.9203     1.3300    30.3530 </r>
       <r>    19.0105     1.5165    30.4898 </r>
       <r>    19.1007     1.6255    30.6363 </r>
       <r>    19.1908     1.8508    30.8032 </r>
       <r>    19.2810     0.4475    30.8436 </r>
       <r>    19.3712     0.6984    30.9065 </r>
       <r>    19.4613     1.6900    31.0589 </r>
       <r>    19.5515     1.3455    31.1802 </r>
       <r>    19.6417     1.1550    31.2844 </r>
       <r>    19.7319     1.2952    31.4012 </r>
       <r>    19.8220     1.1146    31.5017 </r>
       <r>    19.9122     1.0138    31.5931 </r>
       <r>    20.0024     0.7875    31.6641 </r>
       <r>    20.0925     0.7316    31.7301 </r>
       <r>    20.1827     1.1189    31.8309 </r>
       <r>    20.2729     0.7082    31.8948 </r>
       <r>    20.3630     0.1627    31.9095 </r>
       <r>    20.4532     0.2491    31.9319 </r>
       <r>    20.5434     0.5653    31.9829 </r>
       <r>    20.6335     0.1877    31.9998 </r>
       <r>    20.7237     0.0035    32.0001 </r>
       <r>    20.8139    -0.0023    31.9999 </r>
       <r>    20.9040     0.0007    32.0000 </r>
       <r>    20.9942     0.0000    32.0000 </r>
       <r>    21.0844     0.0000    32.0000 </r>
       <r>    21.1745     0.0000    32.0000 </r>
       <r>    21.2647     0.0000    32.0000 </r>
       <r>    21.3549     0.0000    32.0000 </r>
       <r>    21.4450     0.0000    32.0000 </r>
       <r>    21.5352     0.0000    32.0000 </r>
       <r>    21.6254     0.0000    32.0000 </r>
       <r>    21.7155     0.0000    32.0000 </r>
       <r>    21.8057     0.0000    32.0000 </r>
      </set>
     </set>
    </array>
   </total>
  </dos>
 </calculation>
 <structure name="finalpos" >
  <crystal>
   <varray name="basis" >
    <v>       3.78433371       0.00000000       0.00000000 </v>
    <v>       0.00000000       3.78433371       0.00000000 </v>
    <v>       0.00000000       0.00000000       3.78433371 </v>
   </varray>
   <i name="volume">     54.19613038 </i>
   <varray name="rec_basis" >
    <v>       0.26424731       0.00000000       0.00000000 </v>
    <v>       0.00000000       0.26424731       0.00000000 </v>
    <v>       0.00000000       0.00000000       0.26424731 </v>
   </varray>
  </crystal>
  <varray name="positions" >
   <v>       0.00000000       0.00000000       0.00000000 </v>
   <v>       0.50000000       0.50000000       0.00000000 </v>
   <v>       0.50000000       0.00000000       0.50000000 </v>
   <v>       0.00000000       0.50000000       0.50000000 </v>
  </varray>
 </structure>
</modeling>
