<?xml version="1.0" encoding="ISO-8859-1"?>
<modeling>
 <generator>
  <i name="program" type="string">vasp </i>
  <i name="version" type="string">5.4.1  </i>
  <i name="subversion" type="string">24Jun15 (build Jul  8 2015 13:29:37) complex                          parallel </i>
  <i name="platform" type="string">FX10FRT </i>
  <i name="date" type="string">2016 02 20 </i>
  <i name="time" type="string">07:13:34 </i>
 </generator>
 <incar>
  <i type="string" name="PREC">accurate</i>
  <i type="string" name="ALGO"> Normal</i>
  <i type="int" name="ISPIN">     1</i>
  <i type="int" name="IBRION">    -1</i>
  <i name="EDIFF">      0.00010000</i>
  <i type="int" name="NSW">     0</i>
  <i type="int" name="ISIF">     2</i>
  <i name="ENCUT">    400.00000000</i>
  <i type="int" name="ISMEAR">     2</i>
  <i name="SIGMA">      0.10000000</i>
  <i type="int" name="NWRITE">     1</i>
  <v type="int" name="KPOINT_BSE">    -1     0     0     0</v>
 </incar>
 <kpoints>
  <generation param="Monkhorst-Pack">
   <v type="int" name="divisions">      13       12       12 </v>
   <v name="usershift">      0.00000000       0.00000000       0.00000000 </v>
   <v name="genvec1">      0.07692308       0.00000000       0.00000000 </v>
   <v name="genvec2">      0.00000000       0.08333333       0.00000000 </v>
   <v name="genvec3">      0.00000000       0.00000000       0.08333333 </v>
   <v name="shift">      0.00000000       0.50000000       0.50000000 </v>
  </generation>
  <varray name="kpointlist" >
   <v>       0.00000000       0.04166667       0.04166667 </v>
   <v>       0.07692308       0.04166667       0.04166667 </v>
   <v>       0.15384615       0.04166667       0.04166667 </v>
   <v>       0.23076923       0.04166667       0.04166667 </v>
   <v>       0.30769231       0.04166667       0.04166667 </v>
   <v>       0.38461538       0.04166667       0.04166667 </v>
   <v>       0.46153846       0.04166667       0.04166667 </v>
   <v>       0.00000000       0.12500000       0.04166667 </v>
   <v>       0.07692308       0.12500000       0.04166667 </v>
   <v>       0.15384615       0.12500000       0.04166667 </v>
   <v>       0.23076923       0.12500000       0.04166667 </v>
   <v>       0.30769231       0.12500000       0.04166667 </v>
   <v>       0.38461538       0.12500000       0.04166667 </v>
   <v>       0.46153846       0.12500000       0.04166667 </v>
   <v>       0.00000000       0.20833333       0.04166667 </v>
   <v>       0.07692308       0.20833333       0.04166667 </v>
   <v>       0.15384615       0.20833333       0.04166667 </v>
   <v>       0.23076923       0.20833333       0.04166667 </v>
   <v>       0.30769231       0.20833333       0.04166667 </v>
   <v>       0.38461538       0.20833333       0.04166667 </v>
   <v>       0.46153846       0.20833333       0.04166667 </v>
   <v>       0.00000000       0.29166667       0.04166667 </v>
   <v>       0.07692308       0.29166667       0.04166667 </v>
   <v>       0.15384615       0.29166667       0.04166667 </v>
   <v>       0.23076923       0.29166667       0.04166667 </v>
   <v>       0.30769231       0.29166667       0.04166667 </v>
   <v>       0.38461538       0.29166667       0.04166667 </v>
   <v>       0.46153846       0.29166667       0.04166667 </v>
   <v>       0.00000000       0.37500000       0.04166667 </v>
   <v>       0.07692308       0.37500000       0.04166667 </v>
   <v>       0.15384615       0.37500000       0.04166667 </v>
   <v>       0.23076923       0.37500000       0.04166667 </v>
   <v>       0.30769231       0.37500000       0.04166667 </v>
   <v>       0.38461538       0.37500000       0.04166667 </v>
   <v>       0.46153846       0.37500000       0.04166667 </v>
   <v>       0.00000000       0.45833333       0.04166667 </v>
   <v>       0.07692308       0.45833333       0.04166667 </v>
   <v>       0.15384615       0.45833333       0.04166667 </v>
   <v>       0.23076923       0.45833333       0.04166667 </v>
   <v>       0.30769231       0.45833333       0.04166667 </v>
   <v>       0.38461538       0.45833333       0.04166667 </v>
   <v>       0.46153846       0.45833333       0.04166667 </v>
   <v>       0.00000000       0.12500000       0.12500000 </v>
   <v>       0.07692308       0.12500000       0.12500000 </v>
   <v>       0.15384615       0.12500000       0.12500000 </v>
   <v>       0.23076923       0.12500000       0.12500000 </v>
   <v>       0.30769231       0.12500000       0.12500000 </v>
   <v>       0.38461538       0.12500000       0.12500000 </v>
   <v>       0.46153846       0.12500000       0.12500000 </v>
   <v>       0.00000000       0.20833333       0.12500000 </v>
   <v>       0.07692308       0.20833333       0.12500000 </v>
   <v>       0.15384615       0.20833333       0.12500000 </v>
   <v>       0.23076923       0.20833333       0.12500000 </v>
   <v>       0.30769231       0.20833333       0.12500000 </v>
   <v>       0.38461538       0.20833333       0.12500000 </v>
   <v>       0.46153846       0.20833333       0.12500000 </v>
   <v>       0.00000000       0.29166667       0.12500000 </v>
   <v>       0.07692308       0.29166667       0.12500000 </v>
   <v>       0.15384615       0.29166667       0.12500000 </v>
   <v>       0.23076923       0.29166667       0.12500000 </v>
   <v>       0.30769231       0.29166667       0.12500000 </v>
   <v>       0.38461538       0.29166667       0.12500000 </v>
   <v>       0.46153846       0.29166667       0.12500000 </v>
   <v>       0.00000000       0.37500000       0.12500000 </v>
   <v>       0.07692308       0.37500000       0.12500000 </v>
   <v>       0.15384615       0.37500000       0.12500000 </v>
   <v>       0.23076923       0.37500000       0.12500000 </v>
   <v>       0.30769231       0.37500000       0.12500000 </v>
   <v>       0.38461538       0.37500000       0.12500000 </v>
   <v>       0.46153846       0.37500000       0.12500000 </v>
   <v>       0.00000000       0.45833333       0.12500000 </v>
   <v>       0.07692308       0.45833333       0.12500000 </v>
   <v>       0.15384615       0.45833333       0.12500000 </v>
   <v>       0.23076923       0.45833333       0.12500000 </v>
   <v>       0.30769231       0.45833333       0.12500000 </v>
   <v>       0.38461538       0.45833333       0.12500000 </v>
   <v>       0.46153846       0.45833333       0.12500000 </v>
   <v>       0.00000000       0.20833333       0.20833333 </v>
   <v>       0.07692308       0.20833333       0.20833333 </v>
   <v>       0.15384615       0.20833333       0.20833333 </v>
   <v>       0.23076923       0.20833333       0.20833333 </v>
   <v>       0.30769231       0.20833333       0.20833333 </v>
   <v>       0.38461538       0.20833333       0.20833333 </v>
   <v>       0.46153846       0.20833333       0.20833333 </v>
   <v>       0.00000000       0.29166667       0.20833333 </v>
   <v>       0.07692308       0.29166667       0.20833333 </v>
   <v>       0.15384615       0.29166667       0.20833333 </v>
   <v>       0.23076923       0.29166667       0.20833333 </v>
   <v>       0.30769231       0.29166667       0.20833333 </v>
   <v>       0.38461538       0.29166667       0.20833333 </v>
   <v>       0.46153846       0.29166667       0.20833333 </v>
   <v>       0.00000000       0.37500000       0.20833333 </v>
   <v>       0.07692308       0.37500000       0.20833333 </v>
   <v>       0.15384615       0.37500000       0.20833333 </v>
   <v>       0.23076923       0.37500000       0.20833333 </v>
   <v>       0.30769231       0.37500000       0.20833333 </v>
   <v>       0.38461538       0.37500000       0.20833333 </v>
   <v>       0.46153846       0.37500000       0.20833333 </v>
   <v>       0.00000000       0.45833333       0.20833333 </v>
   <v>       0.07692308       0.45833333       0.20833333 </v>
   <v>       0.15384615       0.45833333       0.20833333 </v>
   <v>       0.23076923       0.45833333       0.20833333 </v>
   <v>       0.30769231       0.45833333       0.20833333 </v>
   <v>       0.38461538       0.45833333       0.20833333 </v>
   <v>       0.46153846       0.45833333       0.20833333 </v>
   <v>       0.00000000       0.29166667       0.29166667 </v>
   <v>       0.07692308       0.29166667       0.29166667 </v>
   <v>       0.15384615       0.29166667       0.29166667 </v>
   <v>       0.23076923       0.29166667       0.29166667 </v>
   <v>       0.30769231       0.29166667       0.29166667 </v>
   <v>       0.38461538       0.29166667       0.29166667 </v>
   <v>       0.46153846       0.29166667       0.29166667 </v>
   <v>       0.00000000       0.37500000       0.29166667 </v>
   <v>       0.07692308       0.37500000       0.29166667 </v>
   <v>       0.15384615       0.37500000       0.29166667 </v>
   <v>       0.23076923       0.37500000       0.29166667 </v>
   <v>       0.30769231       0.37500000       0.29166667 </v>
   <v>       0.38461538       0.37500000       0.29166667 </v>
   <v>       0.46153846       0.37500000       0.29166667 </v>
   <v>       0.00000000       0.45833333       0.29166667 </v>
   <v>       0.07692308       0.45833333       0.29166667 </v>
   <v>       0.15384615       0.45833333       0.29166667 </v>
   <v>       0.23076923       0.45833333       0.29166667 </v>
   <v>       0.30769231       0.45833333       0.29166667 </v>
   <v>       0.38461538       0.45833333       0.29166667 </v>
   <v>       0.46153846       0.45833333       0.29166667 </v>
   <v>       0.00000000       0.37500000       0.37500000 </v>
   <v>       0.07692308       0.37500000       0.37500000 </v>
   <v>       0.15384615       0.37500000       0.37500000 </v>
   <v>       0.23076923       0.37500000       0.37500000 </v>
   <v>       0.30769231       0.37500000       0.37500000 </v>
   <v>       0.38461538       0.37500000       0.37500000 </v>
   <v>       0.46153846       0.37500000       0.37500000 </v>
   <v>       0.00000000       0.45833333       0.37500000 </v>
   <v>       0.07692308       0.45833333       0.37500000 </v>
   <v>       0.15384615       0.45833333       0.37500000 </v>
   <v>       0.23076923       0.45833333       0.37500000 </v>
   <v>       0.30769231       0.45833333       0.37500000 </v>
   <v>       0.38461538       0.45833333       0.37500000 </v>
   <v>       0.46153846       0.45833333       0.37500000 </v>
   <v>       0.00000000       0.45833333       0.45833333 </v>
   <v>       0.07692308       0.45833333       0.45833333 </v>
   <v>       0.15384615       0.45833333       0.45833333 </v>
   <v>       0.23076923       0.45833333       0.45833333 </v>
   <v>       0.30769231       0.45833333       0.45833333 </v>
   <v>       0.38461538       0.45833333       0.45833333 </v>
   <v>       0.46153846       0.45833333       0.45833333 </v>
  </varray>
  <varray name="weights" >
   <v>       0.00213675 </v>
   <v>       0.00427350 </v>
   <v>       0.00427350 </v>
   <v>       0.00427350 </v>
   <v>       0.00427350 </v>
   <v>       0.00427350 </v>
   <v>       0.00427350 </v>
   <v>       0.00427350 </v>
   <v>       0.00854701 </v>
   <v>       0.00854701 </v>
   <v>       0.00854701 </v>
   <v>       0.00854701 </v>
   <v>       0.00854701 </v>
   <v>       0.00854701 </v>
   <v>       0.00427350 </v>
   <v>       0.00854701 </v>
   <v>       0.00854701 </v>
   <v>       0.00854701 </v>
   <v>       0.00854701 </v>
   <v>       0.00854701 </v>
   <v>       0.00854701 </v>
   <v>       0.00427350 </v>
   <v>       0.00854701 </v>
   <v>       0.00854701 </v>
   <v>       0.00854701 </v>
   <v>       0.00854701 </v>
   <v>       0.00854701 </v>
   <v>       0.00854701 </v>
   <v>       0.00427350 </v>
   <v>       0.00854701 </v>
   <v>       0.00854701 </v>
   <v>       0.00854701 </v>
   <v>       0.00854701 </v>
   <v>       0.00854701 </v>
   <v>       0.00854701 </v>
   <v>       0.00427350 </v>
   <v>       0.00854701 </v>
   <v>       0.00854701 </v>
   <v>       0.00854701 </v>
   <v>       0.00854701 </v>
   <v>       0.00854701 </v>
   <v>       0.00854701 </v>
   <v>       0.00213675 </v>
   <v>       0.00427350 </v>
   <v>       0.00427350 </v>
   <v>       0.00427350 </v>
   <v>       0.00427350 </v>
   <v>       0.00427350 </v>
   <v>       0.00427350 </v>
   <v>       0.00427350 </v>
   <v>       0.00854701 </v>
   <v>       0.00854701 </v>
   <v>       0.00854701 </v>
   <v>       0.00854701 </v>
   <v>       0.00854701 </v>
   <v>       0.00854701 </v>
   <v>       0.00427350 </v>
   <v>       0.00854701 </v>
   <v>       0.00854701 </v>
   <v>       0.00854701 </v>
   <v>       0.00854701 </v>
   <v>       0.00854701 </v>
   <v>       0.00854701 </v>
   <v>       0.00427350 </v>
   <v>       0.00854701 </v>
   <v>       0.00854701 </v>
   <v>       0.00854701 </v>
   <v>       0.00854701 </v>
   <v>       0.00854701 </v>
   <v>       0.00854701 </v>
   <v>       0.00427350 </v>
   <v>       0.00854701 </v>
   <v>       0.00854701 </v>
   <v>       0.00854701 </v>
   <v>       0.00854701 </v>
   <v>       0.00854701 </v>
   <v>       0.00854701 </v>
   <v>       0.00213675 </v>
   <v>       0.00427350 </v>
   <v>       0.00427350 </v>
   <v>       0.00427350 </v>
   <v>       0.00427350 </v>
   <v>       0.00427350 </v>
   <v>       0.00427350 </v>
   <v>       0.00427350 </v>
   <v>       0.00854701 </v>
   <v>       0.00854701 </v>
   <v>       0.00854701 </v>
   <v>       0.00854701 </v>
   <v>       0.00854701 </v>
   <v>       0.00854701 </v>
   <v>       0.00427350 </v>
   <v>       0.00854701 </v>
   <v>       0.00854701 </v>
   <v>       0.00854701 </v>
   <v>       0.00854701 </v>
   <v>       0.00854701 </v>
   <v>       0.00854701 </v>
   <v>       0.00427350 </v>
   <v>       0.00854701 </v>
   <v>       0.00854701 </v>
   <v>       0.00854701 </v>
   <v>       0.00854701 </v>
   <v>       0.00854701 </v>
   <v>       0.00854701 </v>
   <v>       0.00213675 </v>
   <v>       0.00427350 </v>
   <v>       0.00427350 </v>
   <v>       0.00427350 </v>
   <v>       0.00427350 </v>
   <v>       0.00427350 </v>
   <v>       0.00427350 </v>
   <v>       0.00427350 </v>
   <v>       0.00854701 </v>
   <v>       0.00854701 </v>
   <v>       0.00854701 </v>
   <v>       0.00854701 </v>
   <v>       0.00854701 </v>
   <v>       0.00854701 </v>
   <v>       0.00427350 </v>
   <v>       0.00854701 </v>
   <v>       0.00854701 </v>
   <v>       0.00854701 </v>
   <v>       0.00854701 </v>
   <v>       0.00854701 </v>
   <v>       0.00854701 </v>
   <v>       0.00213675 </v>
   <v>       0.00427350 </v>
   <v>       0.00427350 </v>
   <v>       0.00427350 </v>
   <v>       0.00427350 </v>
   <v>       0.00427350 </v>
   <v>       0.00427350 </v>
   <v>       0.00427350 </v>
   <v>       0.00854701 </v>
   <v>       0.00854701 </v>
   <v>       0.00854701 </v>
   <v>       0.00854701 </v>
   <v>       0.00854701 </v>
   <v>       0.00854701 </v>
   <v>       0.00213675 </v>
   <v>       0.00427350 </v>
   <v>       0.00427350 </v>
   <v>       0.00427350 </v>
   <v>       0.00427350 </v>
   <v>       0.00427350 </v>
   <v>       0.00427350 </v>
  </varray>
 </kpoints>
 <parameters>
  <separator name="general" >
   <i type="string" name="SYSTEM">unknown system</i>
   <i type="logical" name="LCOMPAT"> F  </i>
  </separator>
  <separator name="electronic" >
   <i type="string" name="PREC">accura</i>
   <i name="ENMAX">    400.00000000</i>
   <i name="ENAUG">    322.06900000</i>
   <i name="EDIFF">      0.00010000</i>
   <i type="int" name="IALGO">    38</i>
   <i type="int" name="IWAVPR">    10</i>
   <i type="int" name="NBANDS">    16</i>
   <i name="NELECT">     16.00000000</i>
   <i type="int" name="TURBO">     0</i>
   <i type="int" name="IRESTART">     0</i>
   <i type="int" name="NREBOOT">     0</i>
   <i type="int" name="NMIN">     0</i>
   <i name="EREF">      0.00000000</i>
   <separator name="electronic smearing" >
    <i type="int" name="ISMEAR">     2</i>
    <i name="SIGMA">      0.10000000</i>
    <i name="KSPACING">      0.50000000</i>
    <i type="logical" name="KGAMMA"> T  </i>
   </separator>
   <separator name="electronic projectors" >
    <i type="logical" name="LREAL"> F  </i>
    <v name="ROPT">      0.00000000</v>
    <i type="int" name="LMAXPAW">  -100</i>
    <i type="int" name="LMAXMIX">     2</i>
    <i type="logical" name="NLSPLINE"> F  </i>
   </separator>
   <separator name="electronic startup" >
    <i type="int" name="ISTART">     0</i>
    <i type="int" name="ICHARG">     2</i>
    <i type="int" name="INIWAV">     1</i>
   </separator>
   <separator name="electronic spin" >
    <i type="int" name="ISPIN">     1</i>
    <i type="logical" name="LNONCOLLINEAR"> F  </i>
    <v name="MAGMOM">      1.00000000      1.00000000      1.00000000      1.00000000</v>
    <i name="NUPDOWN">     -1.00000000</i>
    <i type="logical" name="LSORBIT"> F  </i>
    <v name="SAXIS">      0.00000000      0.00000000      1.00000000</v>
    <i type="logical" name="LSPIRAL"> F  </i>
    <v name="QSPIRAL">      0.00000000      0.00000000      0.00000000</v>
    <i type="logical" name="LZEROZ"> F  </i>
   </separator>
   <separator name="electronic exchange-correlation" >
    <i type="logical" name="LASPH"> F  </i>
    <i type="logical" name="LMETAGGA"> F  </i>
   </separator>
   <separator name="electronic convergence" >
    <i type="int" name="NELM">    60</i>
    <i type="int" name="NELMDL">    -5</i>
    <i type="int" name="NELMIN">     2</i>
    <i name="ENINI">    400.00000000</i>
    <separator name="electronic convergence detail" >
     <i type="logical" name="LDIAG"> T  </i>
     <i type="logical" name="LSUBROT"> F  </i>
     <i name="WEIMIN">      0.00000000</i>
     <i name="EBREAK">      0.00000156</i>
     <i name="DEPER">      0.30000000</i>
     <i type="int" name="NRMM">     4</i>
     <i name="TIME">      0.40000000</i>
    </separator>
   </separator>
   <separator name="electronic mixer" >
    <i name="AMIX">      0.40000000</i>
    <i name="BMIX">      1.00000000</i>
    <i name="AMIN">      0.10000000</i>
    <i name="AMIX_MAG">      1.60000000</i>
    <i name="BMIX_MAG">      1.00000000</i>
    <separator name="electronic mixer details" >
     <i type="int" name="IMIX">     4</i>
     <i type="logical" name="MIXFIRST"> F  </i>
     <i type="int" name="MAXMIX">   -45</i>
     <i name="WC">    100.00000000</i>
     <i type="int" name="INIMIX">     1</i>
     <i type="int" name="MIXPRE">     1</i>
     <i type="int" name="MREMOVE">     5</i>
    </separator>
   </separator>
   <separator name="electronic dipolcorrection" >
    <i type="logical" name="LDIPOL"> F  </i>
    <i type="logical" name="LMONO"> F  </i>
    <i type="int" name="IDIPOL">     0</i>
    <i name="EPSILON">      1.00000000</i>
    <v name="DIPOL">   -100.00000000   -100.00000000   -100.00000000</v>
    <i name="EFIELD">      0.00000000</i>
   </separator>
  </separator>
  <separator name="grids" >
   <i type="int" name="NGX">    28</i>
   <i type="int" name="NGY">    28</i>
   <i type="int" name="NGZ">    28</i>
   <i type="int" name="NGXF">    56</i>
   <i type="int" name="NGYF">    56</i>
   <i type="int" name="NGZF">    56</i>
   <i type="logical" name="ADDGRID"> F  </i>
  </separator>
  <separator name="ionic" >
   <i type="int" name="NSW">     0</i>
   <i type="int" name="IBRION">    -1</i>
   <i type="int" name="ISIF">     2</i>
   <i name="PSTRESS">      0.00000000</i>
   <i name="EDIFFG">      0.00100000</i>
   <i type="int" name="NFREE">     0</i>
   <i name="POTIM">      0.50000000</i>
   <i name="SMASS">     -3.00000000</i>
   <i name="SCALEE">      1.00000000</i>
  </separator>
  <separator name="ionic md" >
   <i name="TEBEG">      0.00010000</i>
   <i name="TEEND">      0.00010000</i>
   <i type="int" name="NBLOCK">     1</i>
   <i type="int" name="KBLOCK">     1</i>
   <i type="int" name="NPACO">   256</i>
   <i name="APACO">     16.00000000</i>
  </separator>
  <separator name="symmetry" >
   <i type="int" name="ISYM">     2</i>
   <i name="SYMPREC">      0.00001000</i>
  </separator>
  <separator name="dos" >
   <i type="logical" name="LORBIT"> F  </i>
   <v name="RWIGS">     -1.00000000</v>
   <i type="int" name="NEDOS">   301</i>
   <i name="EMIN">     10.00000000</i>
   <i name="EMAX">    -10.00000000</i>
   <i name="EFERMI">      0.00000000</i>
  </separator>
  <separator name="writing" >
   <i type="int" name="NWRITE">     1</i>
   <i type="logical" name="LWAVE"> T  </i>
   <i type="logical" name="LCHARG"> T  </i>
   <i type="logical" name="LPARD"> F  </i>
   <i type="logical" name="LVTOT"> F  </i>
   <i type="logical" name="LVHAR"> F  </i>
   <i type="logical" name="LELF"> F  </i>
   <i type="logical" name="LOPTICS"> F  </i>
   <v name="STM">      0.00000000      0.00000000      0.00000000      0.00000000      0.00000000      0.00000000      0.00000000</v>
  </separator>
  <separator name="performance" >
   <i type="int" name="NPAR">     8</i>
   <i type="int" name="NSIM">     4</i>
   <i type="int" name="NBLK">    -1</i>
   <i type="logical" name="LPLANE"> T  </i>
   <i type="logical" name="LSCALAPACK"> T  </i>
   <i type="logical" name="LSCAAWARE"> F  </i>
   <i type="logical" name="LSCALU"> F  </i>
   <i type="logical" name="LASYNC"> F  </i>
   <i type="logical" name="LORBITALREAL"> F  </i>
  </separator>
  <separator name="miscellaneous" >
   <i type="int" name="IDIOT">     3</i>
   <i type="logical" name="LMUSIC"> F  </i>
   <v name="POMASS">     28.08500000</v>
   <v name="DARWINR">      0.00000000</v>
   <v name="DARWINV">      1.00000000</v>
   <i type="logical" name="LCORR"> T  </i>
  </separator>
  <i type="logical" name="GGA_COMPAT"> T  </i>
  <i type="logical" name="LBERRY"> F  </i>
  <i type="int" name="ICORELEVEL">     0</i>
  <i type="logical" name="LDAU"> F  </i>
  <i type="int" name="I_CONSTRAINED_M">     0</i>
  <separator name="electronic exchange-correlation" >
   <i type="string" name="GGA">--</i>
   <i type="int" name="VOSKOWN">     0</i>
   <i type="logical" name="LHFCALC"> F  </i>
   <i type="string" name="PRECFOCK"></i>
   <i type="logical" name="LSYMGRAD"> F  </i>
   <i type="logical" name="LHFONE"> F  </i>
   <i type="logical" name="LRHFCALC"> F  </i>
   <i type="logical" name="LTHOMAS"> F  </i>
   <i type="logical" name="LMODELHF"> F  </i>
   <i name="ENCUT4O">     -1.00000000</i>
   <i type="int" name="EXXOEP">     0</i>
   <i type="int" name="FOURORBIT">     0</i>
   <i name="AEXX">      0.00000000</i>
   <i name="HFALPHA">      0.00000000</i>
   <i name="MCALPHA">      0.00000000</i>
   <i name="ALDAX">      1.00000000</i>
   <i name="AGGAX">      1.00000000</i>
   <i name="ALDAC">      1.00000000</i>
   <i name="AGGAC">      1.00000000</i>
   <i type="int" name="NKREDX">     1</i>
   <i type="int" name="NKREDY">     1</i>
   <i type="int" name="NKREDZ">     1</i>
   <i type="logical" name="SHIFTRED"> F  </i>
   <i type="logical" name="ODDONLY"> F  </i>
   <i type="logical" name="EVENONLY"> F  </i>
   <i type="int" name="LMAXFOCK">     0</i>
   <i type="int" name="NMAXFOCKAE">     0</i>
   <i type="logical" name="LFOCKAEDFT"> F  </i>
   <i name="HFSCREEN">      0.00000000</i>
   <i name="HFSCREENC">      0.00000000</i>
   <i type="int" name="NBANDSGWLOW">     0</i>
  </separator>
  <separator name="vdW DFT" >
   <i type="logical" name="LUSE_VDW"> F  </i>
   <i name="Zab_VDW">     -0.84910000</i>
   <i name="PARAM1">      0.12340000</i>
   <i name="PARAM2">      1.00000000</i>
   <i name="PARAM3">      0.00000000</i>
  </separator>
  <separator name="model GW" >
   <i type="int" name="MODEL_GW">     0</i>
   <i name="MODEL_EPS0">      8.76175333</i>
   <i name="MODEL_ALPHA">      1.00000000</i>
  </separator>
  <separator name="linear response parameters" >
   <i type="logical" name="LEPSILON"> F  </i>
   <i type="logical" name="LRPA"> F  </i>
   <i type="logical" name="LNABLA"> F  </i>
   <i type="logical" name="LVEL"> F  </i>
   <i type="int" name="KINTER">     0</i>
   <i name="CSHIFT">      0.10000000</i>
   <i name="OMEGAMAX">     -1.00000000</i>
   <i name="DEG_THRESHOLD">      0.00200000</i>
  </separator>
  <separator name="orbital magnetization" >
   <i type="logical" name="NUCIND"> F  </i>
   <v name="MAGPOS">      0.00000000      0.00000000      0.00000000</v>
   <i type="logical" name="LNICSALL"> T  </i>
   <i type="logical" name="ORBITALMAG"> F  </i>
   <i type="logical" name="LMAGBLOCH"> F  </i>
   <i type="logical" name="LCHIMAG"> F  </i>
   <i type="logical" name="LGAUGE"> T  </i>
   <i type="int" name="MAGATOM">     0</i>
   <v name="MAGDIPOL">      0.00000000      0.00000000      0.00000000</v>
   <v name="AVECCONST">      0.00000000      0.00000000      0.00000000</v>
  </separator>
  <separator name="response functions" >
   <i type="logical" name="LADDER"> F  </i>
   <i type="logical" name="LFXC"> F  </i>
   <i type="logical" name="LHARTREE"> T  </i>
   <i type="int" name="IBSE">     0</i>
   <v type="int" name="KPOINT">    -1     0     0     0</v>
   <i type="logical" name="LTCTE"> F  </i>
   <i type="logical" name="LTETE"> F  </i>
   <i type="logical" name="LTRIPLET"> F  </i>
   <i type="logical" name="LFXCEPS"> F  </i>
   <i type="logical" name="LFXHEG"> F  </i>
   <i type="int" name="NATURALO">     0</i>
   <i type="logical" name="L2ORDER"> F  </i>
   <i type="logical" name="LUSEW"> F  </i>
   <i name="ENCUTGW">     -2.00000000</i>
   <i name="ENCUTGWSOFT">     -2.00000000</i>
   <i name="ENCUTLF">     -1.00000000</i>
   <i type="int" name="LMAXMP2">    -1</i>
   <i name="SCISSOR">      0.00000000</i>
   <i type="int" name="NOMEGA">     0</i>
   <i type="int" name="NOMEGAR">     0</i>
   <i type="int" name="NBANDSGW">    -1</i>
   <i type="int" name="NBANDSO">    -1</i>
   <i type="int" name="NBANDSV">    -1</i>
   <i type="int" name="NELM">     1</i>
   <i type="int" name="NELMHF">     1</i>
   <i type="int" name="DIM">     3</i>
   <i type="int" name="ANTIRES">     0</i>
   <i name="OMEGAMAX">    -30.00000000</i>
   <i name="OMEGAMIN">    -30.00000000</i>
   <i name="OMEGATL">   -200.00000000</i>
   <i type="int" name="OMEGAGRID">     0</i>
   <i name="CSHIFT">     -0.10000000</i>
   <i type="logical" name="SELFENERGY"> F  </i>
   <i type="logical" name="LSPECTRAL"> F  </i>
   <i type="logical" name="LSPECTRALGW"> F  </i>
   <i type="logical" name="LSINGLES"> F  </i>
   <i type="logical" name="LFERMIGW"> F  </i>
   <i type="logical" name="ODDONLYGW"> F  </i>
   <i type="logical" name="EVENONLYGW"> F  </i>
   <i type="int" name="NKREDLFX">     1</i>
   <i type="int" name="NKREDLFY">     1</i>
   <i type="int" name="NKREDLFZ">     1</i>
   <i type="int" name="MAXMEM">  1800</i>
   <i type="int" name="TELESCOPE">     0</i>
   <i type="int" name="TAUPAR">     1</i>
   <i type="int" name="OMEGAPAR">    -1</i>
   <i name="LAMBDA">      1.00000000</i>
  </separator>
  <separator name="External order field" >
   <i name="OFIELD_KAPPA">      0.00000000</i>
   <v name="OFIELD_K">      0.00000000      0.00000000      0.00000000</v>
   <i name="OFIELD_Q6_NEAR">      0.00000000</i>
   <i name="OFIELD_Q6_FAR">      0.00000000</i>
   <i name="OFIELD_A">      0.00000000</i>
  </separator>
 </parameters>
 <atominfo>
  <atoms>       4 </atoms>
  <types>       1 </types>
  <array name="atoms" >
   <dimension dim="1">ion</dimension>
   <field type="string">element</field>
   <field type="int">atomtype</field>
   <set>
    <rc><c>Si</c><c>   1</c></rc>
    <rc><c>Si</c><c>   1</c></rc>
    <rc><c>Si</c><c>   1</c></rc>
    <rc><c>Si</c><c>   1</c></rc>
   </set>
  </array>
  <array name="atomtypes" >
   <dimension dim="1">type</dimension>
   <field type="int">atomspertype</field>
   <field type="string">element</field>
   <field>mass</field>
   <field>valence</field>
   <field type="string">pseudopotential</field>
   <set>
    <rc><c>   4</c><c>Si</c><c>     28.08500000</c><c>      4.00000000</c><c>  PAW_PBE Si 05Jan2001                  </c></rc>
   </set>
  </array>
 </atominfo>
 <structure name="initialpos" >
  <crystal>
   <varray name="basis" >
    <v>       3.82810615       0.00000000       0.00000000 </v>
    <v>       0.00000000       3.90623076       0.00000000 </v>
    <v>       0.00000000       0.00000000       3.90623076 </v>
   </varray>
   <i name="volume">     58.41168886 </i>
   <varray name="rec_basis" >
    <v>       0.26122578       0.00000000       0.00000000 </v>
    <v>       0.00000000       0.25600126       0.00000000 </v>
    <v>       0.00000000       0.00000000       0.25600126 </v>
   </varray>
  </crystal>
  <varray name="positions" >
   <v>       0.00000000       0.00000000       0.00000000 </v>
   <v>       0.50000000       0.50000000       0.00000000 </v>
   <v>       0.50000000       0.00000000       0.50000000 </v>
   <v>       0.00000000       0.50000000       0.50000000 </v>
  </varray>
 </structure>
 <calculation>
  <scstep>
   <time name="dav">    1.64    1.68</time>
   <time name="total">    1.69    1.75</time>
   <energy>
    <i name="alphaZ">      9.22092998 </i>
    <i name="ewald">   -544.49848427 </i>
    <i name="hartreedc">     -2.47283417 </i>
    <i name="XCdc">    -35.32164432 </i>
    <i name="pawpsdc">    352.49519846 </i>
    <i name="pawaedc">   -282.12207116 </i>
    <i name="eentropy">     -0.00025579 </i>
    <i name="bandstr">    104.18261196 </i>
    <i name="atom">    412.26298491 </i>
    <i name="e_fr_energy">     13.74643559 </i>
    <i name="e_wo_entrp">     13.74669138 </i>
    <i name="e_0_energy">     13.74649954 </i>
   </energy>
  </scstep>
  <scstep>
   <time name="dav">    2.05    2.06</time>
   <time name="total">    2.07    2.10</time>
   <energy>
    <i name="e_fr_energy">    -18.65146727 </i>
    <i name="e_wo_entrp">    -18.65010871 </i>
    <i name="e_0_energy">    -18.65112763 </i>
   </energy>
  </scstep>
  <scstep>
   <time name="dav">    1.97    1.97</time>
   <time name="total">    1.97    1.99</time>
   <energy>
    <i name="e_fr_energy">    -19.62716374 </i>
    <i name="e_wo_entrp">    -19.62659611 </i>
    <i name="e_0_energy">    -19.62702183 </i>
   </energy>
  </scstep>
  <scstep>
   <time name="dav">    1.93    1.93</time>
   <time name="total">    1.95    1.95</time>
   <energy>
    <i name="e_fr_energy">    -19.63189042 </i>
    <i name="e_wo_entrp">    -19.63132594 </i>
    <i name="e_0_energy">    -19.63174930 </i>
   </energy>
  </scstep>
  <scstep>
   <time name="dav">    1.97    1.98</time>
   <time name="total">    2.05    2.08</time>
   <energy>
    <i name="e_fr_energy">    -19.63192050 </i>
    <i name="e_wo_entrp">    -19.63135605 </i>
    <i name="e_0_energy">    -19.63177939 </i>
   </energy>
  </scstep>
  <scstep>
   <time name="dav">    1.84    1.83</time>
   <time name="total">    1.91    1.93</time>
   <energy>
    <i name="e_fr_energy">    -19.58097168 </i>
    <i name="e_wo_entrp">    -19.58031777 </i>
    <i name="e_0_energy">    -19.58080820 </i>
   </energy>
  </scstep>
  <scstep>
   <time name="dav">    1.73    1.74</time>
   <time name="total">    1.82    1.84</time>
   <energy>
    <i name="e_fr_energy">    -19.55208524 </i>
    <i name="e_wo_entrp">    -19.55137209 </i>
    <i name="e_0_energy">    -19.55190695 </i>
   </energy>
  </scstep>
  <scstep>
   <time name="dav">    2.01    2.01</time>
   <time name="total">    2.09    2.10</time>
   <energy>
    <i name="e_fr_energy">    -19.55189075 </i>
    <i name="e_wo_entrp">    -19.55117692 </i>
    <i name="e_0_energy">    -19.55171229 </i>
   </energy>
  </scstep>
  <scstep>
   <time name="dav">    1.31    1.31</time>
   <time name="total">    1.34    1.35</time>
   <energy>
    <i name="alphaZ">      9.22092998 </i>
    <i name="ewald">   -544.49848427 </i>
    <i name="hartreedc">     -1.84124271 </i>
    <i name="XCdc">    -35.11585505 </i>
    <i name="pawpsdc">   1160.06821365 </i>
    <i name="pawaedc">  -1089.71932199 </i>
    <i name="eentropy">     -0.00071396 </i>
    <i name="bandstr">     70.07159748 </i>
    <i name="atom">    412.26298491 </i>
    <i name="e_fr_energy">    -19.55189196 </i>
    <i name="e_wo_entrp">    -19.55117800 </i>
    <i name="e_0_energy">    -19.55171347 </i>
   </energy>
  </scstep>
  <structure>
   <crystal>
    <varray name="basis" >
     <v>       3.82810615       0.00000000       0.00000000 </v>
     <v>       0.00000000       3.90623076       0.00000000 </v>
     <v>       0.00000000       0.00000000       3.90623076 </v>
    </varray>
    <i name="volume">     58.41168886 </i>
    <varray name="rec_basis" >
     <v>       0.26122578       0.00000000       0.00000000 </v>
     <v>       0.00000000       0.25600126       0.00000000 </v>
     <v>       0.00000000       0.00000000       0.25600126 </v>
    </varray>
   </crystal>
   <varray name="positions" >
    <v>       0.00000000       0.00000000       0.00000000 </v>
    <v>       0.50000000       0.50000000       0.00000000 </v>
    <v>       0.50000000       0.00000000       0.50000000 </v>
    <v>       0.00000000       0.50000000       0.50000000 </v>
   </varray>
  </structure>
  <varray name="forces" >
   <v>       0.00000000       0.00000000       0.00000000 </v>
   <v>       0.00000000       0.00000000       0.00000000 </v>
   <v>       0.00000000       0.00000000       0.00000000 </v>
   <v>       0.00000000       0.00000000       0.00000000 </v>
  </varray>
  <varray name="stress" >
   <v>     -21.99010979       0.00000000       0.00000000 </v>
   <v>       0.00000000      -1.59867862       0.00000000 </v>
   <v>       0.00000000       0.00000000      -1.59867862 </v>
  </varray>
  <energy>
   <i name="e_fr_energy">    -19.55189196 </i>
   <i name="e_wo_entrp">    -19.55171347 </i>
   <i name="e_0_energy">     -0.00071396 </i>
  </energy>
  <time name="totalsc">   18.20   18.44</time>
  <eigenvalues>
   <array>
    <dimension dim="1">band</dimension>
    <dimension dim="2">kpoint</dimension>
    <dimension dim="3">spin</dimension>
    <field>eigene</field>
    <field>occ</field>
    <set>
     <set comment="spin 1">
      <set comment="kpoint 1">
       <r>   -4.2867    1.0000 </r>
       <r>    4.1994    1.0000 </r>
       <r>    4.1994    1.0000 </r>
       <r>    4.9582    1.0000 </r>
       <r>    5.8851    1.0000 </r>
       <r>    5.8851    1.0000 </r>
       <r>    5.8884    1.0000 </r>
       <r>   12.2217    0.0000 </r>
       <r>   12.9424    0.0000 </r>
       <r>   12.9424    0.0000 </r>
       <r>   12.9897    0.0000 </r>
       <r>   13.3252    0.0000 </r>
       <r>   13.3252    0.0000 </r>
       <r>   14.8095    0.0000 </r>
       <r>   14.9181    0.0000 </r>
       <r>   14.9181    0.0000 </r>
      </set>
      <set comment="kpoint 2">
       <r>   -4.2280    1.0000 </r>
       <r>    3.9452    1.0000 </r>
       <r>    4.2549    1.0000 </r>
       <r>    4.2549    1.0000 </r>
       <r>    5.9396    1.0000 </r>
       <r>    5.9396    1.0000 </r>
       <r>    7.0000    1.0000 </r>
       <r>   12.0530    0.0000 </r>
       <r>   12.0530    0.0000 </r>
       <r>   12.2753    0.0000 </r>
       <r>   13.0411    0.0000 </r>
       <r>   13.2287    0.0000 </r>
       <r>   13.2287    0.0000 </r>
       <r>   14.8664    0.0000 </r>
       <r>   15.5365    0.0000 </r>
       <r>   15.5365    0.0000 </r>
      </set>
      <set comment="kpoint 3">
       <r>   -4.0522    1.0000 </r>
       <r>    2.6778    1.0000 </r>
       <r>    4.4213    1.0000 </r>
       <r>    4.4213    1.0000 </r>
       <r>    6.1021    1.0000 </r>
       <r>    6.1021    1.0000 </r>
       <r>    8.5612    1.0000 </r>
       <r>   10.8821    0.0000 </r>
       <r>   10.8821    0.0000 </r>
       <r>   12.3910    0.0000 </r>
       <r>   12.3910    0.0000 </r>
       <r>   12.4362    0.0000 </r>
       <r>   13.1953    0.0000 </r>
       <r>   15.0376    0.0000 </r>
       <r>   16.9143    0.0000 </r>
       <r>   16.9144    0.0000 </r>
      </set>
      <set comment="kpoint 4">
       <r>   -3.7594    1.0000 </r>
       <r>    1.4925    1.0000 </r>
       <r>    4.6979    1.0000 </r>
       <r>    4.6979    1.0000 </r>
       <r>    6.3693    1.0000 </r>
       <r>    6.3693    1.0000 </r>
       <r>    9.7656    0.9998 </r>
       <r>    9.7656    0.9998 </r>
       <r>   10.2279   -0.0091 </r>
       <r>   11.4051    0.0000 </r>
       <r>   11.4051    0.0000 </r>
       <r>   12.7059    0.0000 </r>
       <r>   13.4521    0.0000 </r>
       <r>   15.3229    0.0000 </r>
       <r>   17.3352    0.0000 </r>
       <r>   17.3889    0.0000 </r>
      </set>
      <set comment="kpoint 5">
       <r>   -3.3503    1.0000 </r>
       <r>    0.4092    1.0000 </r>
       <r>    5.0833    1.0000 </r>
       <r>    5.0833    1.0000 </r>
       <r>    6.7308    1.0000 </r>
       <r>    6.7308    1.0000 </r>
       <r>    8.7483    1.0000 </r>
       <r>    8.7483    1.0000 </r>
       <r>   10.4520    0.0000 </r>
       <r>   10.4520    0.0000 </r>
       <r>   11.9573    0.0000 </r>
       <r>   13.0943    0.0000 </r>
       <r>   13.8114    0.0000 </r>
       <r>   15.7226    0.0000 </r>
       <r>   16.4281    0.0000 </r>
       <r>   17.1212    0.0000 </r>
      </set>
      <set comment="kpoint 6">
       <r>   -2.8254    1.0000 </r>
       <r>   -0.5667    1.0000 </r>
       <r>    5.5737    1.0000 </r>
       <r>    5.5737    1.0000 </r>
       <r>    7.1250    1.0000 </r>
       <r>    7.1250    1.0000 </r>
       <r>    7.8896    1.0000 </r>
       <r>    7.8896    1.0000 </r>
       <r>    9.5945    1.0000 </r>
       <r>    9.5945    1.0000 </r>
       <r>   13.4265    0.0000 </r>
       <r>   13.8894    0.0000 </r>
       <r>   14.2727    0.0000 </r>
       <r>   15.5541    0.0000 </r>
       <r>   16.2386    0.0000 </r>
       <r>   16.2615    0.0000 </r>
      </set>
      <set comment="kpoint 7">
       <r>   -2.1857    1.0000 </r>
       <r>   -1.4323    1.0000 </r>
       <r>    6.1459    1.0000 </r>
       <r>    6.1459    1.0000 </r>
       <r>    6.9041    1.0000 </r>
       <r>    6.9041    1.0000 </r>
       <r>    7.7819    1.0000 </r>
       <r>    7.7819    1.0000 </r>
       <r>    8.9315    1.0000 </r>
       <r>    8.9315    1.0000 </r>
       <r>   14.0846    0.0000 </r>
       <r>   14.7734    0.0000 </r>
       <r>   14.8355    0.0000 </r>
       <r>   15.4990    0.0000 </r>
       <r>   15.5663    0.0000 </r>
       <r>   16.8788    0.0000 </r>
      </set>
      <set comment="kpoint 8">
       <r>   -4.1544    1.0000 </r>
       <r>    2.8510    1.0000 </r>
       <r>    4.3246    1.0000 </r>
       <r>    5.0824    1.0000 </r>
       <r>    6.0081    1.0000 </r>
       <r>    6.0100    1.0000 </r>
       <r>    7.4585    1.0000 </r>
       <r>   11.0193    0.0000 </r>
       <r>   11.7277    0.0000 </r>
       <r>   12.4432    0.0000 </r>
       <r>   12.5367    0.0000 </r>
       <r>   13.0607    0.0000 </r>
       <r>   13.4418    0.0000 </r>
       <r>   15.0456    0.0000 </r>
       <r>   15.9324    0.0000 </r>
       <r>   16.3731    0.0000 </r>
      </set>
      <set comment="kpoint 9">
       <r>   -4.0958    1.0000 </r>
       <r>    2.9072    1.0000 </r>
       <r>    4.0705    1.0000 </r>
       <r>    4.3799    1.0000 </r>
       <r>    6.0616    1.0000 </r>
       <r>    7.1191    1.0000 </r>
       <r>    7.5114    1.0000 </r>
       <r>   10.8041    0.0000 </r>
       <r>   11.0747    0.0000 </r>
       <r>   12.1751    0.0000 </r>
       <r>   12.4967    0.0000 </r>
       <r>   13.3291    0.0000 </r>
       <r>   13.3457    0.0000 </r>
       <r>   15.6630    0.0000 </r>
       <r>   15.9695    0.0000 </r>
       <r>   15.9881    0.0000 </r>
      </set>
      <set comment="kpoint 10">
       <r>   -3.9201    1.0000 </r>
       <r>    2.8044    1.0000 </r>
       <r>    3.0755    1.0000 </r>
       <r>    4.5457    1.0000 </r>
       <r>    6.2202    1.0000 </r>
       <r>    7.6684    1.0000 </r>
       <r>    8.6729    1.0000 </r>
       <r>    9.6206    1.0000 </r>
       <r>   11.0078    0.0000 </r>
       <r>   11.2428    0.0000 </r>
       <r>   12.5131    0.0000 </r>
       <r>   12.6580    0.0000 </r>
       <r>   13.5360    0.0000 </r>
       <r>   16.1557    0.0000 </r>
       <r>   16.1939    0.0000 </r>
       <r>   17.0376    0.0000 </r>
      </set>
      <set comment="kpoint 11">
       <r>   -3.6276    1.0000 </r>
       <r>    1.6203    1.0000 </r>
       <r>    3.3553    1.0000 </r>
       <r>    4.8207    1.0000 </r>
       <r>    6.4736    1.0000 </r>
       <r>    7.9213    1.0000 </r>
       <r>    8.5167    1.0000 </r>
       <r>    9.8982    0.9978 </r>
       <r>   10.3141    0.0028 </r>
       <r>   11.5340    0.0000 </r>
       <r>   11.5360    0.0000 </r>
       <r>   12.8040    0.0000 </r>
       <r>   12.9303    0.0000 </r>
       <r>   16.2688    0.0000 </r>
       <r>   16.4350    0.0000 </r>
       <r>   17.4946    0.0000 </r>
      </set>
      <set comment="kpoint 12">
       <r>   -3.2188    1.0000 </r>
       <r>    0.5379    1.0000 </r>
       <r>    3.7457    1.0000 </r>
       <r>    5.2011    1.0000 </r>
       <r>    6.7436    1.0000 </r>
       <r>    7.6000    1.0000 </r>
       <r>    8.2156    1.0000 </r>
       <r>    8.9282    1.0000 </r>
       <r>   10.5971    0.0000 </r>
       <r>   11.7194    0.0000 </r>
       <r>   11.9065    0.0000 </r>
       <r>   12.2256    0.0000 </r>
       <r>   13.3342    0.0000 </r>
       <r>   15.2927    0.0000 </r>
       <r>   16.5679    0.0000 </r>
       <r>   16.8264    0.0000 </r>
      </set>
      <set comment="kpoint 13">
       <r>   -2.6943    1.0000 </r>
       <r>   -0.4373    1.0000 </r>
       <r>    4.2443    1.0000 </r>
       <r>    5.6578    1.0000 </r>
       <r>    6.4088    1.0000 </r>
       <r>    7.5250    1.0000 </r>
       <r>    7.8437    1.0000 </r>
       <r>    8.7473    1.0000 </r>
       <r>    9.8197    0.9983 </r>
       <r>   11.0488    0.0000 </r>
       <r>   12.3130    0.0000 </r>
       <r>   13.5479    0.0000 </r>
       <r>   14.1803    0.0000 </r>
       <r>   14.4046    0.0000 </r>
       <r>   15.7077    0.0000 </r>
       <r>   17.3331    0.0000 </r>
      </set>
      <set comment="kpoint 14">
       <r>   -2.0550    1.0000 </r>
       <r>   -1.3022    1.0000 </r>
       <r>    4.8454    1.0000 </r>
       <r>    5.5184    1.0000 </r>
       <r>    6.3864    1.0000 </r>
       <r>    7.0616    1.0000 </r>
       <r>    8.0362    1.0000 </r>
       <r>    8.6135    1.0000 </r>
       <r>    9.7136    1.0000 </r>
       <r>   10.2889    0.0046 </r>
       <r>   12.9153    0.0000 </r>
       <r>   13.6111    0.0000 </r>
       <r>   14.2446    0.0000 </r>
       <r>   14.9346    0.0000 </r>
       <r>   15.8483    0.0000 </r>
       <r>   17.4912    0.0000 </r>
      </set>
      <set comment="kpoint 15">
       <r>   -3.8903    1.0000 </r>
       <r>    1.5783    1.0000 </r>
       <r>    4.5745    1.0000 </r>
       <r>    5.3307    1.0000 </r>
       <r>    6.2494    1.0000 </r>
       <r>    6.2522    1.0000 </r>
       <r>    9.1775    1.0000 </r>
       <r>    9.8352    0.9973 </r>
       <r>   10.5206    0.0000 </r>
       <r>   11.4522    0.0000 </r>
       <r>   11.5239    0.0000 </r>
       <r>   13.2970    0.0000 </r>
       <r>   13.6752    0.0000 </r>
       <r>   15.3002    0.0000 </r>
       <r>   17.4943    0.0000 </r>
       <r>   17.5262    0.0000 </r>
      </set>
      <set comment="kpoint 16">
       <r>   -3.8317    1.0000 </r>
       <r>    1.6350    1.0000 </r>
       <r>    4.3205    1.0000 </r>
       <r>    4.6294    1.0000 </r>
       <r>    6.3027    1.0000 </r>
       <r>    7.3520    1.0000 </r>
       <r>    9.2270    1.0000 </r>
       <r>    9.6121    1.0000 </r>
       <r>    9.8938    0.9968 </r>
       <r>   11.5093    0.0000 </r>
       <r>   12.4203    0.0000 </r>
       <r>   12.4792    0.0000 </r>
       <r>   13.5797    0.0000 </r>
       <r>   15.9154    0.0000 </r>
       <r>   17.3066    0.0000 </r>
       <r>   17.3885    0.0000 </r>
      </set>
      <set comment="kpoint 17">
       <r>   -3.6563    1.0000 </r>
       <r>    1.8048    1.0000 </r>
       <r>    3.0573    1.0000 </r>
       <r>    4.7933    1.0000 </r>
       <r>    6.4456    1.0000 </r>
       <r>    8.4345    1.0000 </r>
       <r>    8.8759    1.0000 </r>
       <r>    9.3697    1.0000 </r>
       <r>   10.0809    0.4406 </r>
       <r>   11.2639    0.0000 </r>
       <r>   11.6840    0.0000 </r>
       <r>   12.7594    0.0000 </r>
       <r>   13.6738    0.0000 </r>
       <r>   16.2078    0.0000 </r>
       <r>   16.5898    0.0000 </r>
       <r>   17.2845    0.0000 </r>
      </set>
      <set comment="kpoint 18">
       <r>   -3.3642    1.0000 </r>
       <r>    1.8755    1.0000 </r>
       <r>    2.0875    1.0000 </r>
       <r>    5.0623    1.0000 </r>
       <r>    6.5925    1.0000 </r>
       <r>    7.4343    1.0000 </r>
       <r>    9.5470    1.0000 </r>
       <r>   10.1642   -0.0498 </r>
       <r>   10.2108   -0.0230 </r>
       <r>   10.6878    0.0000 </r>
       <r>   11.8025    0.0000 </r>
       <r>   12.0030    0.0000 </r>
       <r>   14.0498    0.0000 </r>
       <r>   15.1428    0.0000 </r>
       <r>   16.5237    0.0000 </r>
       <r>   16.7760    0.0000 </r>
      </set>
      <set comment="kpoint 19">
       <r>   -2.9559    1.0000 </r>
       <r>    0.7950    1.0000 </r>
       <r>    2.4821    1.0000 </r>
       <r>    5.4019    1.0000 </r>
       <r>    6.1170    1.0000 </r>
       <r>    7.2986    1.0000 </r>
       <r>    9.0246    1.0000 </r>
       <r>    9.9599    1.0419 </r>
       <r>   10.6491    0.0000 </r>
       <r>   10.9612    0.0000 </r>
       <r>   11.9718    0.0000 </r>
       <r>   12.7468    0.0000 </r>
       <r>   13.4559    0.0000 </r>
       <r>   14.1531    0.0000 </r>
       <r>   15.5885    0.0000 </r>
       <r>   18.1133    0.0000 </r>
      </set>
      <set comment="kpoint 20">
       <r>   -2.4322    1.0000 </r>
       <r>   -0.1786    1.0000 </r>
       <r>    2.9874    1.0000 </r>
       <r>    5.1030    1.0000 </r>
       <r>    6.0331    1.0000 </r>
       <r>    7.7278    1.0000 </r>
       <r>    8.1287    1.0000 </r>
       <r>    9.6787    1.0000 </r>
       <r>   10.8007    0.0000 </r>
       <r>   11.1512    0.0000 </r>
       <r>   12.6476    0.0000 </r>
       <r>   12.6737    0.0000 </r>
       <r>   13.2535    0.0000 </r>
       <r>   14.3556    0.0000 </r>
       <r>   14.7264    0.0000 </r>
       <r>   18.8845    0.0000 </r>
      </set>
      <set comment="kpoint 21">
       <r>   -1.7939    1.0000 </r>
       <r>   -1.0422    1.0000 </r>
       <r>    3.6006    1.0000 </r>
       <r>    4.3157    1.0000 </r>
       <r>    6.6070    1.0000 </r>
       <r>    7.3142    1.0000 </r>
       <r>    8.3037    1.0000 </r>
       <r>    8.9772    1.0000 </r>
       <r>   11.2777    0.0000 </r>
       <r>   11.7503    0.0000 </r>
       <r>   11.9278    0.0000 </r>
       <r>   12.4515    0.0000 </r>
       <r>   13.2606    0.0000 </r>
       <r>   13.9495    0.0000 </r>
       <r>   16.1610    0.0000 </r>
       <r>   17.9260    0.0000 </r>
      </set>
      <set comment="kpoint 22">
       <r>   -3.4946    1.0000 </r>
       <r>    0.4205    1.0000 </r>
       <r>    4.9482    1.0000 </r>
       <r>    5.7030    1.0000 </r>
       <r>    6.5930    1.0000 </r>
       <r>    6.6120    1.0000 </r>
       <r>    8.7547    1.0000 </r>
       <r>    9.4167    1.0000 </r>
       <r>   10.4529    0.0000 </r>
       <r>   10.5240    0.0000 </r>
       <r>   10.9930    0.0000 </r>
       <r>   13.6511    0.0000 </r>
       <r>   14.0260    0.0000 </r>
       <r>   15.6814    0.0000 </r>
       <r>   17.1486    0.0000 </r>
       <r>   17.4201    0.0000 </r>
      </set>
      <set comment="kpoint 23">
       <r>   -3.4362    1.0000 </r>
       <r>    0.4776    1.0000 </r>
       <r>    4.6939    1.0000 </r>
       <r>    5.0018    1.0000 </r>
       <r>    6.6504    1.0000 </r>
       <r>    7.6716    1.0000 </r>
       <r>    8.5351    1.0000 </r>
       <r>    8.8294    1.0000 </r>
       <r>   10.5176    0.0000 </r>
       <r>   11.0322    0.0000 </r>
       <r>   11.5023    0.0000 </r>
       <r>   12.7939    0.0000 </r>
       <r>   13.9314    0.0000 </r>
       <r>   16.2833    0.0000 </r>
       <r>   16.2941    0.0000 </r>
       <r>   17.3591    0.0000 </r>
      </set>
      <set comment="kpoint 24">
       <r>   -3.2611    1.0000 </r>
       <r>    0.6487    1.0000 </r>
       <r>    3.4354    1.0000 </r>
       <r>    5.1597    1.0000 </r>
       <r>    6.6772    1.0000 </r>
       <r>    7.4744    1.0000 </r>
       <r>    8.8062    1.0000 </r>
       <r>    9.3608    1.0000 </r>
       <r>   10.7351    0.0000 </r>
       <r>   11.0898    0.0000 </r>
       <r>   11.7086    0.0000 </r>
       <r>   12.9188    0.0000 </r>
       <r>   13.1407    0.0000 </r>
       <r>   15.1693    0.0000 </r>
       <r>   16.5107    0.0000 </r>
       <r>   17.6521    0.0000 </r>
      </set>
      <set comment="kpoint 25">
       <r>   -2.9697    1.0000 </r>
       <r>    0.9336    1.0000 </r>
       <r>    2.2574    1.0000 </r>
       <r>    5.3825    1.0000 </r>
       <r>    6.0558    1.0000 </r>
       <r>    7.2818    1.0000 </r>
       <r>    9.1758    1.0000 </r>
       <r>   10.4247    0.0000 </r>
       <r>   10.5557    0.0000 </r>
       <r>   11.3847    0.0000 </r>
       <r>   11.3893    0.0000 </r>
       <r>   12.2992    0.0000 </r>
       <r>   14.0913    0.0000 </r>
       <r>   14.2414    0.0000 </r>
       <r>   15.5401    0.0000 </r>
       <r>   17.3169    0.0000 </r>
      </set>
      <set comment="kpoint 26">
       <r>   -2.5623    1.0000 </r>
       <r>    1.1798    1.0000 </r>
       <r>    1.3315    1.0000 </r>
       <r>    4.9226    1.0000 </r>
       <r>    5.9079    1.0000 </r>
       <r>    7.6120    1.0000 </r>
       <r>    9.4283    1.0000 </r>
       <r>    9.5722    1.0000 </r>
       <r>   10.9529    0.0000 </r>
       <r>   11.1497    0.0000 </r>
       <r>   12.1172    0.0000 </r>
       <r>   12.9091    0.0000 </r>
       <r>   13.0909    0.0000 </r>
       <r>   14.6034    0.0000 </r>
       <r>   14.7717    0.0000 </r>
       <r>   17.5418    0.0000 </r>
      </set>
      <set comment="kpoint 27">
       <r>   -2.0397    1.0000 </r>
       <r>    0.2087    1.0000 </r>
       <r>    1.8415    1.0000 </r>
       <r>    4.0195    1.0000 </r>
       <r>    6.3752    1.0000 </r>
       <r>    8.0898    1.0000 </r>
       <r>    8.5081    1.0000 </r>
       <r>   10.0682    0.5746 </r>
       <r>   10.1488   -0.0296 </r>
       <r>   11.6707    0.0000 </r>
       <r>   12.1831    0.0000 </r>
       <r>   12.4961    0.0000 </r>
       <r>   13.7377    0.0000 </r>
       <r>   14.3249    0.0000 </r>
       <r>   14.6826    0.0000 </r>
       <r>   18.9226    0.0000 </r>
      </set>
      <set comment="kpoint 28">
       <r>   -1.4029    1.0000 </r>
       <r>   -0.6529    1.0000 </r>
       <r>    2.4620    1.0000 </r>
       <r>    3.1901    1.0000 </r>
       <r>    6.9757    1.0000 </r>
       <r>    7.6884    1.0000 </r>
       <r>    8.6803    1.0000 </r>
       <r>    9.3720    1.0000 </r>
       <r>   10.6690    0.0000 </r>
       <r>   11.3745    0.0000 </r>
       <r>   12.2680    0.0000 </r>
       <r>   12.9571    0.0000 </r>
       <r>   13.0346    0.0000 </r>
       <r>   13.6651    0.0000 </r>
       <r>   16.5072    0.0000 </r>
       <r>   18.2720    0.0000 </r>
      </set>
      <set comment="kpoint 29">
       <r>   -2.9682    1.0000 </r>
       <r>   -0.6158    1.0000 </r>
       <r>    5.4433    1.0000 </r>
       <r>    6.1994    1.0000 </r>
       <r>    6.9670    1.0000 </r>
       <r>    7.0706    1.0000 </r>
       <r>    7.8494    1.0000 </r>
       <r>    8.4294    1.0000 </r>
       <r>    9.5536    1.0000 </r>
       <r>    9.6232    1.0000 </r>
       <r>   12.8750    0.0000 </r>
       <r>   14.1220    0.0000 </r>
       <r>   14.4987    0.0000 </r>
       <r>   16.1882    0.0000 </r>
       <r>   16.2250    0.0000 </r>
       <r>   16.5142    0.0000 </r>
      </set>
      <set comment="kpoint 30">
       <r>   -2.9100    1.0000 </r>
       <r>   -0.5584    1.0000 </r>
       <r>    5.1869    1.0000 </r>
       <r>    5.4925    1.0000 </r>
       <r>    6.9977    1.0000 </r>
       <r>    7.6630    1.0000 </r>
       <r>    7.6907    1.0000 </r>
       <r>    8.2754    1.0000 </r>
       <r>    9.6530    1.0000 </r>
       <r>   10.5863    0.0000 </r>
       <r>   12.8248    0.0000 </r>
       <r>   13.3681    0.0000 </r>
       <r>   14.4046    0.0000 </r>
       <r>   15.3529    0.0000 </r>
       <r>   16.4478    0.0000 </r>
       <r>   16.7992    0.0000 </r>
      </set>
      <set comment="kpoint 31">
       <r>   -2.7354    1.0000 </r>
       <r>   -0.3861    1.0000 </r>
       <r>    3.9367    1.0000 </r>
       <r>    5.6004    1.0000 </r>
       <r>    6.2251    1.0000 </r>
       <r>    7.4816    1.0000 </r>
       <r>    7.9187    1.0000 </r>
       <r>    9.3384    1.0000 </r>
       <r>   10.2092   -0.0245 </r>
       <r>   12.0270    0.0000 </r>
       <r>   12.0544    0.0000 </r>
       <r>   13.0178    0.0000 </r>
       <r>   13.7598    0.0000 </r>
       <r>   14.2267    0.0000 </r>
       <r>   15.6001    0.0000 </r>
       <r>   18.1424    0.0000 </r>
      </set>
      <set comment="kpoint 32">
       <r>   -2.4448    1.0000 </r>
       <r>   -0.0994    1.0000 </r>
       <r>    2.7646    1.0000 </r>
       <r>    4.9796    1.0000 </r>
       <r>    6.0150    1.0000 </r>
       <r>    7.7173    1.0000 </r>
       <r>    8.2064    1.0000 </r>
       <r>    9.8284    0.9977 </r>
       <r>   10.9455    0.0000 </r>
       <r>   11.6385    0.0000 </r>
       <r>   12.4164    0.0000 </r>
       <r>   13.1384    0.0000 </r>
       <r>   13.5985    0.0000 </r>
       <r>   13.6284    0.0000 </r>
       <r>   14.6289    0.0000 </r>
       <r>   18.8936    0.0000 </r>
      </set>
      <set comment="kpoint 33">
       <r>   -2.0386    1.0000 </r>
       <r>    0.3012    1.0000 </r>
       <r>    1.6914    1.0000 </r>
       <r>    3.9614    1.0000 </r>
       <r>    6.3757    1.0000 </r>
       <r>    8.0916    1.0000 </r>
       <r>    8.5952    1.0000 </r>
       <r>    9.9286    1.0134 </r>
       <r>   10.2487    0.0012 </r>
       <r>   11.5258    0.0000 </r>
       <r>   12.1299    0.0000 </r>
       <r>   13.3353    0.0000 </r>
       <r>   13.6889    0.0000 </r>
       <r>   13.9209    0.0000 </r>
       <r>   15.0232    0.0000 </r>
       <r>   18.2400    0.0000 </r>
      </set>
      <set comment="kpoint 34">
       <r>   -1.5176    1.0000 </r>
       <r>    0.7238    1.0000 </r>
       <r>    0.8149    1.0000 </r>
       <r>    3.0184    1.0000 </r>
       <r>    6.8671    1.0000 </r>
       <r>    8.5798    1.0000 </r>
       <r>    9.0057    1.0000 </r>
       <r>    9.0908    1.0000 </r>
       <r>   10.6600    0.0000 </r>
       <r>   10.7478    0.0000 </r>
       <r>   11.2158    0.0000 </r>
       <r>   12.8187    0.0000 </r>
       <r>   14.3511    0.0000 </r>
       <r>   15.1132    0.0000 </r>
       <r>   15.6957    0.0000 </r>
       <r>   18.5190    0.0000 </r>
      </set>
      <set comment="kpoint 35">
       <r>   -0.8826    1.0000 </r>
       <r>   -0.1350    1.0000 </r>
       <r>    1.4404    1.0000 </r>
       <r>    2.1759    1.0000 </r>
       <r>    7.4716    1.0000 </r>
       <r>    8.1853    1.0000 </r>
       <r>    9.1748    1.0000 </r>
       <r>    9.6935    1.0000 </r>
       <r>    9.8709    0.9951 </r>
       <r>   10.4025    0.0001 </r>
       <r>   11.3424    0.0000 </r>
       <r>   12.0339    0.0000 </r>
       <r>   14.8660    0.0000 </r>
       <r>   15.4003    0.0000 </r>
       <r>   16.8899    0.0000 </r>
       <r>   18.4796    0.0000 </r>
      </set>
      <set comment="kpoint 36">
       <r>   -2.3120    1.0000 </r>
       <r>   -1.5273    1.0000 </r>
       <r>    6.0531    1.0000 </r>
       <r>    6.7364    1.0000 </r>
       <r>    6.8196    1.0000 </r>
       <r>    7.5494    1.0000 </r>
       <r>    7.5632    1.0000 </r>
       <r>    7.6566    1.0000 </r>
       <r>    8.8838    1.0000 </r>
       <r>    8.9297    1.0000 </r>
       <r>   14.7093    0.0000 </r>
       <r>   14.7097    0.0000 </r>
       <r>   15.1611    0.0000 </r>
       <r>   15.4108    0.0000 </r>
       <r>   15.6994    0.0000 </r>
       <r>   16.7081    0.0000 </r>
      </set>
      <set comment="kpoint 37">
       <r>   -2.2540    1.0000 </r>
       <r>   -1.4696    1.0000 </r>
       <r>    5.7829    1.0000 </r>
       <r>    6.0546    1.0000 </r>
       <r>    6.6068    1.0000 </r>
       <r>    6.9032    1.0000 </r>
       <r>    7.8456    1.0000 </r>
       <r>    8.3339    1.0000 </r>
       <r>    9.2844    1.0000 </r>
       <r>    9.7941    0.9993 </r>
       <r>   13.7881    0.0000 </r>
       <r>   14.5238    0.0000 </r>
       <r>   14.8030    0.0000 </r>
       <r>   15.1105    0.0000 </r>
       <r>   15.6366    0.0000 </r>
       <r>   16.7996    0.0000 </r>
      </set>
      <set comment="kpoint 38">
       <r>   -2.0801    1.0000 </r>
       <r>   -1.2964    1.0000 </r>
       <r>    4.5561    1.0000 </r>
       <r>    5.2714    1.0000 </r>
       <r>    6.3528    1.0000 </r>
       <r>    7.0701    1.0000 </r>
       <r>    8.0330    1.0000 </r>
       <r>    8.7133    1.0000 </r>
       <r>   10.5866    0.0000 </r>
       <r>   11.2574    0.0000 </r>
       <r>   12.6609    0.0000 </r>
       <r>   13.3895    0.0000 </r>
       <r>   14.0308    0.0000 </r>
       <r>   14.7798    0.0000 </r>
       <r>   15.2615    0.0000 </r>
       <r>   17.1385    0.0000 </r>
      </set>
      <set comment="kpoint 39">
       <r>   -1.7905    1.0000 </r>
       <r>   -1.0082    1.0000 </r>
       <r>    3.3946    1.0000 </r>
       <r>    4.1416    1.0000 </r>
       <r>    6.6090    1.0000 </r>
       <r>    7.3466    1.0000 </r>
       <r>    8.3132    1.0000 </r>
       <r>    9.0271    1.0000 </r>
       <r>   11.5631    0.0000 </r>
       <r>   12.1847    0.0000 </r>
       <r>   12.2941    0.0000 </r>
       <r>   12.8571    0.0000 </r>
       <r>   13.0846    0.0000 </r>
       <r>   13.8097    0.0000 </r>
       <r>   15.5119    0.0000 </r>
       <r>   17.4522    0.0000 </r>
      </set>
      <set comment="kpoint 40">
       <r>   -1.3859    1.0000 </r>
       <r>   -0.6053    1.0000 </r>
       <r>    2.3281    1.0000 </r>
       <r>    3.0869    1.0000 </r>
       <r>    6.9913    1.0000 </r>
       <r>    7.7329    1.0000 </r>
       <r>    8.6988    1.0000 </r>
       <r>    9.4220    1.0000 </r>
       <r>   10.5454    0.0000 </r>
       <r>   11.2798    0.0000 </r>
       <r>   12.1475    0.0000 </r>
       <r>   12.8676    0.0000 </r>
       <r>   13.8831    0.0000 </r>
       <r>   14.4988    0.0000 </r>
       <r>   15.8493    0.0000 </r>
       <r>   17.7773    0.0000 </r>
      </set>
      <set comment="kpoint 41">
       <r>   -0.8668    1.0000 </r>
       <r>   -0.0887    1.0000 </r>
       <r>    1.3653    1.0000 </r>
       <r>    2.1312    1.0000 </r>
       <r>    7.4863    1.0000 </r>
       <r>    8.2286    1.0000 </r>
       <r>    9.1905    1.0000 </r>
       <r>    9.6236    1.0000 </r>
       <r>    9.9159    1.0050 </r>
       <r>   10.3612    0.0006 </r>
       <r>   11.2729    0.0000 </r>
       <r>   11.9937    0.0000 </r>
       <r>   15.6052    0.0000 </r>
       <r>   16.0094    0.0000 </r>
       <r>   16.2545    0.0000 </r>
       <r>   18.0733    0.0000 </r>
      </set>
      <set comment="kpoint 42">
       <r>   -0.2343    1.0000 </r>
       <r>    0.5103    1.0000 </r>
       <r>    0.5407    1.0000 </r>
       <r>    1.2814    1.0000 </r>
       <r>    8.0913    1.0000 </r>
       <r>    8.8045    1.0000 </r>
       <r>    8.8329    1.0000 </r>
       <r>    9.5444    1.0000 </r>
       <r>    9.7862    0.9995 </r>
       <r>   10.4823    0.0000 </r>
       <r>   10.5110    0.0000 </r>
       <r>   11.2052    0.0000 </r>
       <r>   16.6638    0.0000 </r>
       <r>   16.8081    0.0000 </r>
       <r>   17.1793    0.0000 </r>
       <r>   18.0757    0.0000 </r>
      </set>
      <set comment="kpoint 43">
       <r>   -4.0223    1.0000 </r>
       <r>    2.9777    1.0000 </r>
       <r>    2.9777    1.0000 </r>
       <r>    5.2065    1.0000 </r>
       <r>    6.1274    1.0000 </r>
       <r>    7.5781    1.0000 </r>
       <r>    7.5781    1.0000 </r>
       <r>    9.7745    0.9997 </r>
       <r>   11.8492    0.0000 </r>
       <r>   11.8492    0.0000 </r>
       <r>   12.6587    0.0000 </r>
       <r>   12.6587    0.0000 </r>
       <r>   13.2198    0.0000 </r>
       <r>   15.5883    0.0000 </r>
       <r>   16.4970    0.0000 </r>
       <r>   16.4970    0.0000 </r>
      </set>
      <set comment="kpoint 44">
       <r>   -3.9638    1.0000 </r>
       <r>    3.0337    1.0000 </r>
       <r>    3.0337    1.0000 </r>
       <r>    4.1953    1.0000 </r>
       <r>    7.2320    1.0000 </r>
       <r>    7.6290    1.0000 </r>
       <r>    7.6290    1.0000 </r>
       <r>    9.8348    0.9973 </r>
       <r>   10.9305    0.0000 </r>
       <r>   10.9305    0.0000 </r>
       <r>   13.2712    0.0000 </r>
       <r>   13.4464    0.0000 </r>
       <r>   13.4464    0.0000 </r>
       <r>   15.6459    0.0000 </r>
       <r>   16.0964    0.0000 </r>
       <r>   16.0964    0.0000 </r>
      </set>
      <set comment="kpoint 45">
       <r>   -3.7882    1.0000 </r>
       <r>    2.9307    1.0000 </r>
       <r>    3.2015    1.0000 </r>
       <r>    3.2015    1.0000 </r>
       <r>    7.7754    1.0000 </r>
       <r>    7.7754    1.0000 </r>
       <r>    8.7593    1.0000 </r>
       <r>    9.7581    0.9999 </r>
       <r>    9.7581    0.9999 </r>
       <r>   10.0315    0.9008 </r>
       <r>   13.4252    0.0000 </r>
       <r>   13.6526    0.0000 </r>
       <r>   13.6526    0.0000 </r>
       <r>   15.8191    0.0000 </r>
       <r>   16.1229    0.0000 </r>
       <r>   16.3209    0.0000 </r>
      </set>
      <set comment="kpoint 46">
       <r>   -3.4959    1.0000 </r>
       <r>    1.7478    1.0000 </r>
       <r>    3.4802    1.0000 </r>
       <r>    3.4802    1.0000 </r>
       <r>    7.9488    1.0000 </r>
       <r>    7.9488    1.0000 </r>
       <r>    8.7293    1.0000 </r>
       <r>    8.7293    1.0000 </r>
       <r>   10.0504    0.7507 </r>
       <r>   10.6823    0.0000 </r>
       <r>   12.9255    0.0000 </r>
       <r>   12.9255    0.0000 </r>
       <r>   13.6817    0.0000 </r>
       <r>   15.0557    0.0000 </r>
       <r>   16.1092    0.0000 </r>
       <r>   17.6145    0.0000 </r>
      </set>
      <set comment="kpoint 47">
       <r>   -3.0873    1.0000 </r>
       <r>    0.6664    1.0000 </r>
       <r>    3.8680    1.0000 </r>
       <r>    3.8680    1.0000 </r>
       <r>    7.4552    1.0000 </r>
       <r>    7.4552    1.0000 </r>
       <r>    8.5648    1.0000 </r>
       <r>    8.5648    1.0000 </r>
       <r>   10.5629    0.0000 </r>
       <r>   12.0340    0.0000 </r>
       <r>   12.0340    0.0000 </r>
       <r>   12.2967    0.0000 </r>
       <r>   14.0404    0.0000 </r>
       <r>   14.0681    0.0000 </r>
       <r>   16.5200    0.0000 </r>
       <r>   17.3364    0.0000 </r>
      </set>
      <set comment="kpoint 48">
       <r>   -2.5632    1.0000 </r>
       <r>   -0.3080    1.0000 </r>
       <r>    4.3590    1.0000 </r>
       <r>    4.3590    1.0000 </r>
       <r>    6.5814    1.0000 </r>
       <r>    6.5814    1.0000 </r>
       <r>    8.9812    1.0000 </r>
       <r>    8.9812    1.0000 </r>
       <r>   11.0700    0.0000 </r>
       <r>   11.1898    0.0000 </r>
       <r>   11.1898    0.0000 </r>
       <r>   13.1710    0.0000 </r>
       <r>   14.0651    0.0000 </r>
       <r>   14.5009    0.0000 </r>
       <r>   16.4826    0.0000 </r>
       <r>   17.0662    0.0000 </r>
      </set>
      <set comment="kpoint 49">
       <r>   -1.9245    1.0000 </r>
       <r>   -1.1722    1.0000 </r>
       <r>    4.9146    1.0000 </r>
       <r>    4.9146    1.0000 </r>
       <r>    5.8195    1.0000 </r>
       <r>    5.8195    1.0000 </r>
       <r>    9.4652    1.0000 </r>
       <r>    9.4652    1.0000 </r>
       <r>   10.5002    0.0000 </r>
       <r>   10.5002    0.0000 </r>
       <r>   11.6701    0.0000 </r>
       <r>   12.3705    0.0000 </r>
       <r>   15.0625    0.0000 </r>
       <r>   15.7236    0.0000 </r>
       <r>   15.8028    0.0000 </r>
       <r>   17.2827    0.0000 </r>
      </set>
      <set comment="kpoint 50">
       <r>   -3.7583    1.0000 </r>
       <r>    1.7061    1.0000 </r>
       <r>    3.2305    1.0000 </r>
       <r>    5.4548    1.0000 </r>
       <r>    6.3506    1.0000 </r>
       <r>    7.8137    1.0000 </r>
       <r>    8.5955    1.0000 </r>
       <r>    9.2902    1.0000 </r>
       <r>   10.6434    0.0000 </r>
       <r>   11.6538    0.0000 </r>
       <r>   12.0921    0.0000 </r>
       <r>   12.7795    0.0000 </r>
       <r>   12.9051    0.0000 </r>
       <r>   16.5634    0.0000 </r>
       <r>   16.7449    0.0000 </r>
       <r>   17.0963    0.0000 </r>
      </set>
      <set comment="kpoint 51">
       <r>   -3.6998    1.0000 </r>
       <r>    1.7627    1.0000 </r>
       <r>    3.2862    1.0000 </r>
       <r>    4.4439    1.0000 </r>
       <r>    7.4305    1.0000 </r>
       <r>    7.8556    1.0000 </r>
       <r>    8.6800    1.0000 </r>
       <r>    9.3320    1.0000 </r>
       <r>    9.7486    0.9999 </r>
       <r>   11.1896    0.0000 </r>
       <r>   12.6019    0.0000 </r>
       <r>   12.8329    0.0000 </r>
       <r>   13.6810    0.0000 </r>
       <r>   16.1243    0.0000 </r>
       <r>   16.3499    0.0000 </r>
       <r>   16.6191    0.0000 </r>
      </set>
      <set comment="kpoint 52">
       <r>   -3.5245    1.0000 </r>
       <r>    1.9322    1.0000 </r>
       <r>    3.1827    1.0000 </r>
       <r>    3.4527    1.0000 </r>
       <r>    7.9107    1.0000 </r>
       <r>    8.5724    1.0000 </r>
       <r>    8.6584    1.0000 </r>
       <r>    9.2573    1.0000 </r>
       <r>    9.3911    1.0000 </r>
       <r>   10.1049    0.2072 </r>
       <r>   12.9937    0.0000 </r>
       <r>   13.7909    0.0000 </r>
       <r>   13.8858    0.0000 </r>
       <r>   14.9815    0.0000 </r>
       <r>   16.5751    0.0000 </r>
       <r>   16.7156    0.0000 </r>
      </set>
      <set comment="kpoint 53">
       <r>   -3.2327    1.0000 </r>
       <r>    2.0024    1.0000 </r>
       <r>    2.2142    1.0000 </r>
       <r>    3.7283    1.0000 </r>
       <r>    7.2680    1.0000 </r>
       <r>    8.4414    1.0000 </r>
       <r>    8.7465    1.0000 </r>
       <r>    8.9771    1.0000 </r>
       <r>    9.8873    0.9958 </r>
       <r>   10.7868    0.0000 </r>
       <r>   13.1705    0.0000 </r>
       <r>   13.2651    0.0000 </r>
       <r>   13.8989    0.0000 </r>
       <r>   14.1658    0.0000 </r>
       <r>   16.9015    0.0000 </r>
       <r>   17.0653    0.0000 </r>
      </set>
      <set comment="kpoint 54">
       <r>   -2.8247    1.0000 </r>
       <r>    0.9230    1.0000 </r>
       <r>    2.6075    1.0000 </r>
       <r>    4.1067    1.0000 </r>
       <r>    6.2845    1.0000 </r>
       <r>    7.7565    1.0000 </r>
       <r>    8.7731    1.0000 </r>
       <r>    9.3807    1.0000 </r>
       <r>   10.1982   -0.0350 </r>
       <r>   12.2981    0.0000 </r>
       <r>   12.4811    0.0000 </r>
       <r>   12.8994    0.0000 </r>
       <r>   13.5766    0.0000 </r>
       <r>   13.6665    0.0000 </r>
       <r>   16.8769    0.0000 </r>
       <r>   17.4589    0.0000 </r>
      </set>
      <set comment="kpoint 55">
       <r>   -2.3014    1.0000 </r>
       <r>   -0.0496    1.0000 </r>
       <r>    3.1098    1.0000 </r>
       <r>    4.5424    1.0000 </r>
       <r>    5.4214    1.0000 </r>
       <r>    6.8373    1.0000 </r>
       <r>    9.2423    1.0000 </r>
       <r>    9.8791    0.9952 </r>
       <r>   10.5645    0.0000 </r>
       <r>   11.5377    0.0000 </r>
       <r>   11.9931    0.0000 </r>
       <r>   12.8001    0.0000 </r>
       <r>   13.8933    0.0000 </r>
       <r>   14.5180    0.0000 </r>
       <r>   16.0315    0.0000 </r>
       <r>   17.9749    0.0000 </r>
      </set>
      <set comment="kpoint 56">
       <r>   -1.6636    1.0000 </r>
       <r>   -0.9125    1.0000 </r>
       <r>    3.7149    1.0000 </r>
       <r>    4.3851    1.0000 </r>
       <r>    5.3594    1.0000 </r>
       <r>    6.0240    1.0000 </r>
       <r>    9.8102    0.9987 </r>
       <r>   10.4150    0.0000 </r>
       <r>   10.4806    0.0000 </r>
       <r>   11.1858    0.0000 </r>
       <r>   11.4788    0.0000 </r>
       <r>   12.0666    0.0000 </r>
       <r>   14.5812    0.0000 </r>
       <r>   15.2661    0.0000 </r>
       <r>   16.1892    0.0000 </r>
       <r>   17.7909    0.0000 </r>
      </set>
      <set comment="kpoint 57">
       <r>   -3.3630    1.0000 </r>
       <r>    0.5492    1.0000 </r>
       <r>    3.6088    1.0000 </r>
       <r>    5.8271    1.0000 </r>
       <r>    6.5966    1.0000 </r>
       <r>    7.6150    1.0000 </r>
       <r>    8.1525    1.0000 </r>
       <r>    9.5398    1.0000 </r>
       <r>   10.6712    0.0000 </r>
       <r>   11.0866    0.0000 </r>
       <r>   11.8854    0.0000 </r>
       <r>   12.4559    0.0000 </r>
       <r>   13.2864    0.0000 </r>
       <r>   16.0470    0.0000 </r>
       <r>   16.5859    0.0000 </r>
       <r>   17.1156    0.0000 </r>
      </set>
      <set comment="kpoint 58">
       <r>   -3.3046    1.0000 </r>
       <r>    0.6062    1.0000 </r>
       <r>    3.6636    1.0000 </r>
       <r>    4.8130    1.0000 </r>
       <r>    7.3050    1.0000 </r>
       <r>    8.0723    1.0000 </r>
       <r>    8.1052    1.0000 </r>
       <r>    8.7594    1.0000 </r>
       <r>   11.0415    0.0000 </r>
       <r>   11.6324    0.0000 </r>
       <r>   11.6611    0.0000 </r>
       <r>   11.9420    0.0000 </r>
       <r>   14.0342    0.0000 </r>
       <r>   15.0834    0.0000 </r>
       <r>   16.7309    0.0000 </r>
       <r>   17.4312    0.0000 </r>
      </set>
      <set comment="kpoint 59">
       <r>   -3.1297    1.0000 </r>
       <r>    0.7771    1.0000 </r>
       <r>    3.5588    1.0000 </r>
       <r>    3.8270    1.0000 </r>
       <r>    7.3063    1.0000 </r>
       <r>    7.5991    1.0000 </r>
       <r>    8.5243    1.0000 </r>
       <r>    9.4821    1.0000 </r>
       <r>   10.2498    0.0015 </r>
       <r>   11.4291    0.0000 </r>
       <r>   12.1149    0.0000 </r>
       <r>   13.0411    0.0000 </r>
       <r>   13.9272    0.0000 </r>
       <r>   14.2361    0.0000 </r>
       <r>   16.9568    0.0000 </r>
       <r>   17.6328    0.0000 </r>
      </set>
      <set comment="kpoint 60">
       <r>   -2.8384    1.0000 </r>
       <r>    1.0615    1.0000 </r>
       <r>    2.3832    1.0000 </r>
       <r>    4.0926    1.0000 </r>
       <r>    6.2138    1.0000 </r>
       <r>    7.8949    1.0000 </r>
       <r>    8.7615    1.0000 </r>
       <r>    9.1631    1.0000 </r>
       <r>   11.0794    0.0000 </r>
       <r>   11.6369    0.0000 </r>
       <r>   12.4291    0.0000 </r>
       <r>   12.8330    0.0000 </r>
       <r>   13.5483    0.0000 </r>
       <r>   14.3580    0.0000 </r>
       <r>   16.8766    0.0000 </r>
       <r>   17.4397    0.0000 </r>
      </set>
      <set comment="kpoint 61">
       <r>   -2.4314    1.0000 </r>
       <r>    1.3071    1.0000 </r>
       <r>    1.4586    1.0000 </r>
       <r>    4.4083    1.0000 </r>
       <r>    5.2488    1.0000 </r>
       <r>    8.1408    1.0000 </r>
       <r>    8.2869    1.0000 </r>
       <r>    9.1325    1.0000 </r>
       <r>   11.8241    0.0000 </r>
       <r>   11.8797    0.0000 </r>
       <r>   12.4420    0.0000 </r>
       <r>   12.7775    0.0000 </r>
       <r>   13.1803    0.0000 </r>
       <r>   14.8866    0.0000 </r>
       <r>   15.9935    0.0000 </r>
       <r>   17.6635    0.0000 </r>
      </set>
      <set comment="kpoint 62">
       <r>   -1.9092    1.0000 </r>
       <r>    0.3371    1.0000 </r>
       <r>    1.9671    1.0000 </r>
       <r>    4.0918    1.0000 </r>
       <r>    5.1233    1.0000 </r>
       <r>    7.2136    1.0000 </r>
       <r>    8.7843    1.0000 </r>
       <r>    9.6139    1.0000 </r>
       <r>   10.9105    0.0000 </r>
       <r>   11.5764    0.0000 </r>
       <r>   12.6865    0.0000 </r>
       <r>   13.0950    0.0000 </r>
       <r>   14.4440    0.0000 </r>
       <r>   14.8056    0.0000 </r>
       <r>   15.1509    0.0000 </r>
       <r>   19.0359    0.0000 </r>
      </set>
      <set comment="kpoint 63">
       <r>   -1.2729    1.0000 </r>
       <r>   -0.5236    1.0000 </r>
       <r>    2.5846    1.0000 </r>
       <r>    3.3045    1.0000 </r>
       <r>    5.6828    1.0000 </r>
       <r>    6.3913    1.0000 </r>
       <r>    9.3881    1.0000 </r>
       <r>   10.0975    0.2738 </r>
       <r>   10.1971   -0.0360 </r>
       <r>   10.8691    0.0000 </r>
       <r>   13.1707    0.0000 </r>
       <r>   13.7005    0.0000 </r>
       <r>   13.7895    0.0000 </r>
       <r>   14.3833    0.0000 </r>
       <r>   16.5901    0.0000 </r>
       <r>   18.2862    0.0000 </r>
      </set>
      <set comment="kpoint 64">
       <r>   -2.8369    1.0000 </r>
       <r>   -0.4863    1.0000 </r>
       <r>    4.1106    1.0000 </r>
       <r>    6.2506    1.0000 </r>
       <r>    6.3234    1.0000 </r>
       <r>    7.4540    1.0000 </r>
       <r>    8.5279    1.0000 </r>
       <r>    8.5530    1.0000 </r>
       <r>    9.8465    0.9964 </r>
       <r>   10.9933    0.0000 </r>
       <r>   12.8692    0.0000 </r>
       <r>   12.9399    0.0000 </r>
       <r>   13.8777    0.0000 </r>
       <r>   15.1003    0.0000 </r>
       <r>   15.6852    0.0000 </r>
       <r>   17.6068    0.0000 </r>
      </set>
      <set comment="kpoint 65">
       <r>   -2.7787    1.0000 </r>
       <r>   -0.4289    1.0000 </r>
       <r>    4.1635    1.0000 </r>
       <r>    5.2848    1.0000 </r>
       <r>    6.4645    1.0000 </r>
       <r>    7.5569    1.0000 </r>
       <r>    8.4238    1.0000 </r>
       <r>    8.7820    1.0000 </r>
       <r>   10.7358    0.0000 </r>
       <r>   11.0564    0.0000 </r>
       <r>   11.9387    0.0000 </r>
       <r>   13.1313    0.0000 </r>
       <r>   14.1400    0.0000 </r>
       <r>   14.5127    0.0000 </r>
       <r>   16.5263    0.0000 </r>
       <r>   17.2429    0.0000 </r>
      </set>
      <set comment="kpoint 66">
       <r>   -2.6043    1.0000 </r>
       <r>   -0.2569    1.0000 </r>
       <r>    4.0542    1.0000 </r>
       <r>    4.3171    1.0000 </r>
       <r>    6.3703    1.0000 </r>
       <r>    6.6361    1.0000 </r>
       <r>    8.9598    1.0000 </r>
       <r>    9.8939    0.9968 </r>
       <r>   10.7792    0.0000 </r>
       <r>   11.2684    0.0000 </r>
       <r>   12.1836    0.0000 </r>
       <r>   12.9743    0.0000 </r>
       <r>   13.2731    0.0000 </r>
       <r>   14.7071    0.0000 </r>
       <r>   16.7348    0.0000 </r>
       <r>   17.4709    0.0000 </r>
      </set>
      <set comment="kpoint 67">
       <r>   -2.3140    1.0000 </r>
       <r>    0.0295    1.0000 </r>
       <r>    2.8879    1.0000 </r>
       <r>    4.5138    1.0000 </r>
       <r>    5.3072    1.0000 </r>
       <r>    6.9145    1.0000 </r>
       <r>    9.2354    1.0000 </r>
       <r>    9.6674    1.0000 </r>
       <r>   11.1517    0.0000 </r>
       <r>   11.8713    0.0000 </r>
       <r>   11.9299    0.0000 </r>
       <r>   13.3938    0.0000 </r>
       <r>   13.7198    0.0000 </r>
       <r>   14.1500    0.0000 </r>
       <r>   15.9925    0.0000 </r>
       <r>   18.7060    0.0000 </r>
      </set>
      <set comment="kpoint 68">
       <r>   -1.9081    1.0000 </r>
       <r>    0.4295    1.0000 </r>
       <r>    1.8174    1.0000 </r>
       <r>    4.0379    1.0000 </r>
       <r>    5.1196    1.0000 </r>
       <r>    7.3025    1.0000 </r>
       <r>    8.6411    1.0000 </r>
       <r>    9.6164    1.0000 </r>
       <r>   10.8553    0.0000 </r>
       <r>   11.7137    0.0000 </r>
       <r>   12.9314    0.0000 </r>
       <r>   13.4776    0.0000 </r>
       <r>   14.0921    0.0000 </r>
       <r>   15.1134    0.0000 </r>
       <r>   15.1385    0.0000 </r>
       <r>   18.3576    0.0000 </r>
      </set>
      <set comment="kpoint 69">
       <r>   -1.3876    1.0000 </r>
       <r>    0.8513    1.0000 </r>
       <r>    0.9423    1.0000 </r>
       <r>    3.1333    1.0000 </r>
       <r>    5.5733    1.0000 </r>
       <r>    7.7127    1.0000 </r>
       <r>    7.7998    1.0000 </r>
       <r>    9.9359    1.0196 </r>
       <r>   10.1022    0.2302 </r>
       <r>   12.1370    0.0000 </r>
       <r>   12.2251    0.0000 </r>
       <r>   14.2693    0.0000 </r>
       <r>   14.4814    0.0000 </r>
       <r>   15.2299    0.0000 </r>
       <r>   15.8086    0.0000 </r>
       <r>   18.6340    0.0000 </r>
      </set>
      <set comment="kpoint 70">
       <r>   -0.7532    1.0000 </r>
       <r>   -0.0064    1.0000 </r>
       <r>    1.5662    1.0000 </r>
       <r>    2.2987    1.0000 </r>
       <r>    6.1732    1.0000 </r>
       <r>    6.8885    1.0000 </r>
       <r>    8.4056    1.0000 </r>
       <r>    9.1183    1.0000 </r>
       <r>   10.6898    0.0000 </r>
       <r>   11.3728    0.0000 </r>
       <r>   12.8167    0.0000 </r>
       <r>   13.4993    0.0000 </r>
       <r>   14.9867    0.0000 </r>
       <r>   15.5165    0.0000 </r>
       <r>   16.9875    0.0000 </r>
       <r>   18.5448    0.0000 </r>
      </set>
      <set comment="kpoint 71">
       <r>   -2.1812    1.0000 </r>
       <r>   -1.3971    1.0000 </r>
       <r>    4.7324    1.0000 </r>
       <r>    5.4637    1.0000 </r>
       <r>    6.9435    1.0000 </r>
       <r>    7.6870    1.0000 </r>
       <r>    7.9478    1.0000 </r>
       <r>    8.5002    1.0000 </r>
       <r>    9.6453    1.0000 </r>
       <r>   10.2055   -0.0280 </r>
       <r>   13.5433    0.0000 </r>
       <r>   14.0814    0.0000 </r>
       <r>   14.2644    0.0000 </r>
       <r>   14.8656    0.0000 </r>
       <r>   15.1992    0.0000 </r>
       <r>   17.0301    0.0000 </r>
      </set>
      <set comment="kpoint 72">
       <r>   -2.1232    1.0000 </r>
       <r>   -1.3394    1.0000 </r>
       <r>    4.7782    1.0000 </r>
       <r>    5.4413    1.0000 </r>
       <r>    6.0768    1.0000 </r>
       <r>    6.7335    1.0000 </r>
       <r>    8.9487    1.0000 </r>
       <r>    9.1852    1.0000 </r>
       <r>   10.0730    0.5240 </r>
       <r>   10.3011    0.0038 </r>
       <r>   12.5739    0.0000 </r>
       <r>   13.3028    0.0000 </r>
       <r>   14.8566    0.0000 </r>
       <r>   15.2631    0.0000 </r>
       <r>   15.7141    0.0000 </r>
       <r>   16.9367    0.0000 </r>
      </set>
      <set comment="kpoint 73">
       <r>   -1.9495    1.0000 </r>
       <r>   -1.1664    1.0000 </r>
       <r>    4.6443    1.0000 </r>
       <r>    4.8588    1.0000 </r>
       <r>    5.5924    1.0000 </r>
       <r>    5.8072    1.0000 </r>
       <r>    9.5251    1.0000 </r>
       <r>   10.0615    0.6432 </r>
       <r>   10.8750    0.0000 </r>
       <r>   11.3990    0.0000 </r>
       <r>   11.4055    0.0000 </r>
       <r>   12.1304    0.0000 </r>
       <r>   15.0715    0.0000 </r>
       <r>   15.3946    0.0000 </r>
       <r>   15.9300    0.0000 </r>
       <r>   17.0437    0.0000 </r>
      </set>
      <set comment="kpoint 74">
       <r>   -1.6602    1.0000 </r>
       <r>   -0.8785    1.0000 </r>
       <r>    3.5111    1.0000 </r>
       <r>    4.2233    1.0000 </r>
       <r>    5.3490    1.0000 </r>
       <r>    6.0549    1.0000 </r>
       <r>    9.8279    0.9978 </r>
       <r>   10.2859    0.0047 </r>
       <r>   10.5144    0.0000 </r>
       <r>   11.0210    0.0000 </r>
       <r>   12.3317    0.0000 </r>
       <r>   12.9850    0.0000 </r>
       <r>   14.4408    0.0000 </r>
       <r>   15.1844    0.0000 </r>
       <r>   15.6269    0.0000 </r>
       <r>   17.4791    0.0000 </r>
      </set>
      <set comment="kpoint 75">
       <r>   -1.2559    1.0000 </r>
       <r>   -0.4761    1.0000 </r>
[...]
       <r>   16.4643    0.0000 </r>
       <r>   17.6745    0.0000 </r>
      </set>
      <set comment="kpoint 142">
       <r>   -0.3017    1.0000 </r>
       <r>    0.4737    1.0000 </r>
       <r>    0.4737    1.0000 </r>
       <r>    1.2450    1.0000 </r>
       <r>    7.7322    1.0000 </r>
       <r>    8.4747    1.0000 </r>
       <r>    8.4747    1.0000 </r>
       <r>    9.2155    1.0000 </r>
       <r>   10.7494    0.0000 </r>
       <r>   11.4675    0.0000 </r>
       <r>   11.4675    0.0000 </r>
       <r>   12.1849    0.0000 </r>
       <r>   16.4316    0.0000 </r>
       <r>   16.5127    0.0000 </r>
       <r>   16.5127    0.0000 </r>
       <r>   17.7164    0.0000 </r>
      </set>
      <set comment="kpoint 143">
       <r>   -0.1304    1.0000 </r>
       <r>    0.6435    1.0000 </r>
       <r>    0.6435    1.0000 </r>
       <r>    1.4126    1.0000 </r>
       <r>    6.5059    1.0000 </r>
       <r>    7.2522    1.0000 </r>
       <r>    7.2522    1.0000 </r>
       <r>    7.9975    1.0000 </r>
       <r>   12.2489    0.0000 </r>
       <r>   12.9495    0.0000 </r>
       <r>   12.9495    0.0000 </r>
       <r>   13.6525    0.0000 </r>
       <r>   16.5752    0.0000 </r>
       <r>   16.6567    0.0000 </r>
       <r>   16.6567    0.0000 </r>
       <r>   17.8382    0.0000 </r>
      </set>
      <set comment="kpoint 144">
       <r>    0.1543    1.0000 </r>
       <r>    0.9255    1.0000 </r>
       <r>    0.9255    1.0000 </r>
       <r>    1.6896    1.0000 </r>
       <r>    5.3565    1.0000 </r>
       <r>    6.1038    1.0000 </r>
       <r>    6.1038    1.0000 </r>
       <r>    6.8522    1.0000 </r>
       <r>   13.8406    0.0000 </r>
       <r>   14.5081    0.0000 </r>
       <r>   14.5081    0.0000 </r>
       <r>   15.1885    0.0000 </r>
       <r>   16.8111    0.0000 </r>
       <r>   16.8927    0.0000 </r>
       <r>   16.8927    0.0000 </r>
       <r>   18.0253    0.0000 </r>
      </set>
      <set comment="kpoint 145">
       <r>    0.5514    1.0000 </r>
       <r>    1.3170    1.0000 </r>
       <r>    1.3170    1.0000 </r>
       <r>    2.0675    1.0000 </r>
       <r>    4.3166    1.0000 </r>
       <r>    5.0560    1.0000 </r>
       <r>    5.0560    1.0000 </r>
       <r>    5.8047    1.0000 </r>
       <r>   15.4659    0.0000 </r>
       <r>   16.0575    0.0000 </r>
       <r>   16.0575    0.0000 </r>
       <r>   16.7063    0.0000 </r>
       <r>   17.1317    0.0000 </r>
       <r>   17.2145    0.0000 </r>
       <r>   17.2145    0.0000 </r>
       <r>   18.2374    0.0000 </r>
      </set>
      <set comment="kpoint 146">
       <r>    1.0580    1.0000 </r>
       <r>    1.8099    1.0000 </r>
       <r>    1.8099    1.0000 </r>
       <r>    2.4885    1.0000 </r>
       <r>    3.4504    1.0000 </r>
       <r>    4.1235    1.0000 </r>
       <r>    4.1235    1.0000 </r>
       <r>    4.8642    1.0000 </r>
       <r>   17.0339    0.0000 </r>
       <r>   17.3453    0.0000 </r>
       <r>   17.3453    0.0000 </r>
       <r>   17.5202    0.0000 </r>
       <r>   17.6752    0.0000 </r>
       <r>   17.6752    0.0000 </r>
       <r>   18.0353    0.0000 </r>
       <r>   18.3729    0.0000 </r>
      </set>
      <set comment="kpoint 147">
       <r>    1.6664    1.0000 </r>
       <r>    2.3291    1.0000 </r>
       <r>    2.3516    1.0000 </r>
       <r>    2.3516    1.0000 </r>
       <r>    3.3615    1.0000 </r>
       <r>    3.3615    1.0000 </r>
       <r>    3.3839    1.0000 </r>
       <r>    4.0410    1.0000 </r>
       <r>   17.7967    0.0000 </r>
       <r>   17.7967    0.0000 </r>
       <r>   17.9348    0.0000 </r>
       <r>   18.2724    0.0000 </r>
       <r>   18.3099    0.0000 </r>
       <r>   18.3207    0.0000 </r>
       <r>   18.3207    0.0000 </r>
       <r>   18.7452    0.0000 </r>
      </set>
     </set>
    </set>
   </array>
  </eigenvalues>
  <separator name="orbital magnetization" >
   <v name="MAGDIPOLOUT">      0.00000000      0.00000000      0.00000000</v>
  </separator>
  <dos>
   <i name="efermi">     10.07524698 </i>
   <total>
    <array>
     <dimension dim="1">gridpoints</dimension>
     <dimension dim="2">spin</dimension>
     <field>energy</field>
     <field>total</field>
     <field>integrated</field>
     <set>
      <set comment="spin 1">
       <r>    -5.4597     0.0000     0.0000 </r>
       <r>    -5.3737     0.0000     0.0000 </r>
       <r>    -5.2877     0.0000     0.0000 </r>
       <r>    -5.2017     0.0000     0.0000 </r>
       <r>    -5.1156     0.0000     0.0000 </r>
       <r>    -5.0296     0.0000     0.0000 </r>
       <r>    -4.9436     0.0000     0.0000 </r>
       <r>    -4.8576     0.0000     0.0000 </r>
       <r>    -4.7715     0.0000     0.0000 </r>
       <r>    -4.6855     0.0000     0.0000 </r>
       <r>    -4.5995     0.0000     0.0000 </r>
       <r>    -4.5135     0.0002     0.0000 </r>
       <r>    -4.4274    -0.0006     0.0000 </r>
       <r>    -4.3414    -0.0013    -0.0001 </r>
       <r>    -4.2554     0.0589     0.0049 </r>
       <r>    -4.1694     0.1166     0.0150 </r>
       <r>    -4.0833     0.2197     0.0339 </r>
       <r>    -3.9973     0.2032     0.0513 </r>
       <r>    -3.9113     0.2313     0.0712 </r>
       <r>    -3.8253     0.2975     0.0968 </r>
       <r>    -3.7392     0.3185     0.1242 </r>
       <r>    -3.6532     0.3881     0.1576 </r>
       <r>    -3.5672     0.2744     0.1812 </r>
       <r>    -3.4812     0.3351     0.2100 </r>
       <r>    -3.3951     0.4216     0.2463 </r>
       <r>    -3.3091     0.4469     0.2848 </r>
       <r>    -3.2231     0.5850     0.3351 </r>
       <r>    -3.1371     0.3513     0.3653 </r>
       <r>    -3.0510     0.3098     0.3920 </r>
       <r>    -2.9650     0.4566     0.4312 </r>
       <r>    -2.8790     0.5986     0.4827 </r>
       <r>    -2.7930     0.6921     0.5423 </r>
       <r>    -2.7069     0.4604     0.5819 </r>
       <r>    -2.6209     0.3728     0.6139 </r>
       <r>    -2.5349     0.7301     0.6768 </r>
       <r>    -2.4489     0.5864     0.7272 </r>
       <r>    -2.3628     0.4798     0.7685 </r>
       <r>    -2.2768     0.5372     0.8147 </r>
       <r>    -2.1908     0.4834     0.8563 </r>
       <r>    -2.1048     0.7391     0.9198 </r>
       <r>    -2.0187     0.9072     0.9979 </r>
       <r>    -1.9327     0.6984     1.0580 </r>
       <r>    -1.8467     0.6856     1.1170 </r>
       <r>    -1.7607     0.3792     1.1496 </r>
       <r>    -1.6746     0.6183     1.2028 </r>
       <r>    -1.5886     0.8408     1.2751 </r>
       <r>    -1.5026     0.3502     1.3052 </r>
       <r>    -1.4166     0.8504     1.3784 </r>
       <r>    -1.3305     1.0572     1.4693 </r>
       <r>    -1.2445     0.9940     1.5548 </r>
       <r>    -1.1585     0.5534     1.6024 </r>
       <r>    -1.0725     0.5484     1.6496 </r>
       <r>    -0.9864     0.8828     1.7256 </r>
       <r>    -0.9004     0.8688     1.8003 </r>
       <r>    -0.8144     0.6070     1.8525 </r>
       <r>    -0.7283     0.6730     1.9104 </r>
       <r>    -0.6423     0.8439     1.9830 </r>
       <r>    -0.5563     0.9339     2.0633 </r>
       <r>    -0.4703     1.1452     2.1618 </r>
       <r>    -0.3842     0.7653     2.2277 </r>
       <r>    -0.2982     0.2876     2.2524 </r>
       <r>    -0.2122     1.0340     2.3414 </r>
       <r>    -0.1262     1.3118     2.4542 </r>
       <r>    -0.0401     1.2637     2.5629 </r>
       <r>     0.0459     0.8087     2.6325 </r>
       <r>     0.1319     0.3986     2.6668 </r>
       <r>     0.2179     0.7750     2.7335 </r>
       <r>     0.3040     0.9323     2.8137 </r>
       <r>     0.3900     0.7521     2.8784 </r>
       <r>     0.4760     0.9258     2.9580 </r>
       <r>     0.5620     0.9551     3.0402 </r>
       <r>     0.6481     1.3328     3.1548 </r>
       <r>     0.7341     1.5198     3.2856 </r>
       <r>     0.8201     0.6966     3.3455 </r>
       <r>     0.9061     1.0380     3.4348 </r>
       <r>     0.9922     1.0115     3.5218 </r>
       <r>     1.0782     0.6811     3.5804 </r>
       <r>     1.1642     0.7557     3.6454 </r>
       <r>     1.2502     1.0395     3.7348 </r>
       <r>     1.3363     1.2845     3.8453 </r>
       <r>     1.4223     1.0600     3.9365 </r>
       <r>     1.5083     0.8860     4.0127 </r>
       <r>     1.5943     1.0096     4.0996 </r>
       <r>     1.6804     1.0194     4.1873 </r>
       <r>     1.7664     1.4230     4.3097 </r>
       <r>     1.8524     1.4702     4.4362 </r>
       <r>     1.9384     0.7161     4.4978 </r>
       <r>     2.0245     0.9109     4.5761 </r>
       <r>     2.1105     1.1962     4.6790 </r>
       <r>     2.1965     1.3191     4.7925 </r>
       <r>     2.2825     1.2316     4.8985 </r>
       <r>     2.3686     1.0103     4.9854 </r>
       <r>     2.4546     1.1513     5.0844 </r>
       <r>     2.5406     1.3550     5.2010 </r>
       <r>     2.6266     1.6347     5.3416 </r>
       <r>     2.7127     0.5899     5.3924 </r>
       <r>     2.7987     0.5089     5.4361 </r>
       <r>     2.8847     1.5841     5.5724 </r>
       <r>     2.9707     0.9721     5.6560 </r>
       <r>     3.0568     1.2330     5.7621 </r>
       <r>     3.1428     1.6085     5.9005 </r>
       <r>     3.2288     1.2906     6.0115 </r>
       <r>     3.3148     0.8867     6.0878 </r>
       <r>     3.4009     1.3381     6.2029 </r>
       <r>     3.4869     1.3962     6.3230 </r>
       <r>     3.5729     1.2098     6.4271 </r>
       <r>     3.6589     1.1108     6.5226 </r>
       <r>     3.7450     1.0945     6.6168 </r>
       <r>     3.8310     0.7093     6.6778 </r>
       <r>     3.9170     0.9924     6.7632 </r>
       <r>     4.0030     1.0482     6.8533 </r>
       <r>     4.0891     1.5662     6.9881 </r>
       <r>     4.1751     1.7500     7.1386 </r>
       <r>     4.2611     1.2367     7.2450 </r>
       <r>     4.3471     1.4926     7.3734 </r>
       <r>     4.4332     1.5923     7.5104 </r>
       <r>     4.5192     1.3115     7.6232 </r>
       <r>     4.6052     1.4303     7.7462 </r>
       <r>     4.6912     0.8805     7.8220 </r>
       <r>     4.7773     0.8478     7.8949 </r>
       <r>     4.8633     1.4623     8.0207 </r>
       <r>     4.9493     1.6841     8.1656 </r>
       <r>     5.0353     1.4799     8.2929 </r>
       <r>     5.1214     1.5340     8.4249 </r>
       <r>     5.2074     1.4312     8.5480 </r>
       <r>     5.2934     1.0366     8.6371 </r>
       <r>     5.3794     1.3155     8.7503 </r>
       <r>     5.4655     1.6795     8.8948 </r>
       <r>     5.5515     1.2335     9.0009 </r>
       <r>     5.6375     1.1574     9.1005 </r>
       <r>     5.7235     1.3119     9.2133 </r>
       <r>     5.8096     1.2213     9.3184 </r>
       <r>     5.8956     1.0547     9.4091 </r>
       <r>     5.9816     1.1355     9.5068 </r>
       <r>     6.0676     2.1007     9.6875 </r>
       <r>     6.1537     1.6932     9.8332 </r>
       <r>     6.2397     1.2952     9.9446 </r>
       <r>     6.3257     1.5807    10.0806 </r>
       <r>     6.4117     1.9166    10.2455 </r>
       <r>     6.4978     1.4783    10.3726 </r>
       <r>     6.5838     1.2635    10.4813 </r>
       <r>     6.6698     2.0759    10.6599 </r>
       <r>     6.7558     1.2065    10.7637 </r>
       <r>     6.8419     0.9021    10.8413 </r>
       <r>     6.9279     1.4725    10.9680 </r>
       <r>     7.0139     1.7888    11.1218 </r>
       <r>     7.0999     1.3420    11.2373 </r>
       <r>     7.1860     0.8690    11.3120 </r>
       <r>     7.2720     1.0100    11.3989 </r>
       <r>     7.3580     1.5086    11.5287 </r>
       <r>     7.4440     1.1370    11.6265 </r>
       <r>     7.5301     2.0393    11.8020 </r>
       <r>     7.6161     2.1332    11.9855 </r>
       <r>     7.7021     2.0209    12.1593 </r>
       <r>     7.7881     1.7266    12.3078 </r>
       <r>     7.8742     1.6702    12.4515 </r>
       <r>     7.9602     1.7861    12.6052 </r>
       <r>     8.0462     1.2673    12.7142 </r>
       <r>     8.1322     1.4417    12.8382 </r>
       <r>     8.2183     1.4964    12.9669 </r>
       <r>     8.3043     1.3576    13.0837 </r>
       <r>     8.3903     0.7943    13.1521 </r>
       <r>     8.4763     1.0990    13.2466 </r>
       <r>     8.5624     1.8225    13.4034 </r>
       <r>     8.6484     1.7608    13.5549 </r>
       <r>     8.7344     2.3983    13.7612 </r>
       <r>     8.8205     2.6135    13.9860 </r>
       <r>     8.9065     1.3099    14.0987 </r>
       <r>     8.9925     1.3376    14.2138 </r>
       <r>     9.0785     1.3649    14.3312 </r>
       <r>     9.1646     1.4931    14.4596 </r>
       <r>     9.2506     1.7267    14.6082 </r>
       <r>     9.3366     1.4698    14.7346 </r>
       <r>     9.4226     1.6677    14.8781 </r>
       <r>     9.5087     1.1278    14.9751 </r>
       <r>     9.5947     1.7310    15.1240 </r>
       <r>     9.6807     2.3165    15.3233 </r>
       <r>     9.7667     1.7856    15.4769 </r>
       <r>     9.8528     2.1629    15.6629 </r>
       <r>     9.9388     2.0258    15.8372 </r>
       <r>    10.0248     0.9853    15.9220 </r>
       <r>    10.1108     1.7639    16.0737 </r>
       <r>    10.1969     2.1048    16.2548 </r>
       <r>    10.2829     2.0095    16.4276 </r>
       <r>    10.3689     1.1811    16.5292 </r>
       <r>    10.4549     1.1527    16.6284 </r>
       <r>    10.5410     1.8573    16.7882 </r>
       <r>    10.6270     1.8415    16.9466 </r>
       <r>    10.7130     2.0129    17.1198 </r>
       <r>    10.7990     1.7688    17.2719 </r>
       <r>    10.8851     1.5649    17.4065 </r>
       <r>    10.9711     1.9517    17.5744 </r>
       <r>    11.0571     2.0855    17.7538 </r>
       <r>    11.1431     1.8265    17.9110 </r>
       <r>    11.2292     1.8994    18.0744 </r>
       <r>    11.3152     2.0926    18.2544 </r>
       <r>    11.4012     1.8240    18.4113 </r>
       <r>    11.4872     1.9083    18.5754 </r>
       <r>    11.5733     1.5013    18.7046 </r>
       <r>    11.6593     1.8069    18.8600 </r>
       <r>    11.7453     1.9230    19.0255 </r>
       <r>    11.8313     1.4947    19.1540 </r>
       <r>    11.9174     2.2268    19.3456 </r>
       <r>    12.0034     2.4380    19.5553 </r>
       <r>    12.0894     1.8575    19.7151 </r>
       <r>    12.1754     1.9150    19.8799 </r>
       <r>    12.2615     2.0280    20.0543 </r>
       <r>    12.3475     1.6990    20.2005 </r>
       <r>    12.4335     2.1122    20.3822 </r>
       <r>    12.5195     2.2084    20.5722 </r>
       <r>    12.6056     1.1635    20.6723 </r>
       <r>    12.6916     1.6468    20.8139 </r>
       <r>    12.7776     2.0485    20.9902 </r>
       <r>    12.8636     2.4499    21.2009 </r>
       <r>    12.9497     2.5711    21.4221 </r>
       <r>    13.0357     2.7432    21.6581 </r>
       <r>    13.1217     2.5916    21.8810 </r>
       <r>    13.2077     2.1606    22.0669 </r>
       <r>    13.2938     1.9843    22.2376 </r>
       <r>    13.3798     1.6229    22.3772 </r>
       <r>    13.4658     1.4962    22.5059 </r>
       <r>    13.5518     2.0818    22.6850 </r>
       <r>    13.6379     2.7168    22.9187 </r>
       <r>    13.7239     2.5722    23.1400 </r>
       <r>    13.8099     2.1266    23.3229 </r>
       <r>    13.8959     2.7416    23.5588 </r>
       <r>    13.9820     2.1236    23.7414 </r>
       <r>    14.0680     1.9226    23.9068 </r>
       <r>    14.1540     2.2019    24.0963 </r>
       <r>    14.2400     1.6715    24.2400 </r>
       <r>    14.3261     2.1499    24.4250 </r>
       <r>    14.4121     2.4044    24.6318 </r>
       <r>    14.4981     2.2435    24.8248 </r>
       <r>    14.5841     1.6741    24.9688 </r>
       <r>    14.6702     1.3828    25.0878 </r>
       <r>    14.7562     1.9179    25.2528 </r>
       <r>    14.8422     2.2999    25.4506 </r>
       <r>    14.9282     1.8218    25.6074 </r>
       <r>    15.0143     1.3151    25.7205 </r>
       <r>    15.1003     2.1835    25.9083 </r>
       <r>    15.1863     2.3442    26.1100 </r>
       <r>    15.2723     2.8114    26.3518 </r>
       <r>    15.3584     1.7270    26.5004 </r>
       <r>    15.4444     1.2030    26.6039 </r>
       <r>    15.5304     1.3873    26.7232 </r>
       <r>    15.6164     1.6777    26.8676 </r>
       <r>    15.7025     2.3249    27.0676 </r>
       <r>    15.7885     2.0677    27.2454 </r>
       <r>    15.8745     1.7920    27.3996 </r>
       <r>    15.9605     2.1182    27.5818 </r>
       <r>    16.0466     1.8161    27.7380 </r>
       <r>    16.1326     1.8587    27.8979 </r>
       <r>    16.2186     2.3252    28.0980 </r>
       <r>    16.3046     1.8054    28.2533 </r>
       <r>    16.3907     1.3069    28.3657 </r>
       <r>    16.4767     1.2212    28.4708 </r>
       <r>    16.5627     2.6209    28.6962 </r>
       <r>    16.6487     2.4731    28.9090 </r>
       <r>    16.7348     1.3151    29.0221 </r>
       <r>    16.8208     1.8044    29.1773 </r>
       <r>    16.9068     2.2918    29.3745 </r>
       <r>    16.9928     1.7745    29.5271 </r>
       <r>    17.0789     1.3565    29.6438 </r>
       <r>    17.1649     1.4525    29.7688 </r>
       <r>    17.2509     1.3171    29.8821 </r>
       <r>    17.3369     2.2866    30.0788 </r>
       <r>    17.4230     2.3383    30.2799 </r>
       <r>    17.5090     2.3240    30.4799 </r>
       <r>    17.5950     1.1235    30.5765 </r>
       <r>    17.6810     1.2898    30.6875 </r>
       <r>    17.7671     1.3776    30.8060 </r>
       <r>    17.8531     1.3032    30.9181 </r>
       <r>    17.9391     1.3483    31.0341 </r>
       <r>    18.0251     1.1080    31.1294 </r>
       <r>    18.1112     1.1804    31.2309 </r>
       <r>    18.1972     1.2751    31.3406 </r>
       <r>    18.2832     1.2832    31.4510 </r>
       <r>    18.3693     1.1394    31.5490 </r>
       <r>    18.4553     0.5553    31.5968 </r>
       <r>    18.5413     0.8044    31.6660 </r>
       <r>    18.6273     1.1236    31.7626 </r>
       <r>    18.7134     0.9054    31.8405 </r>
       <r>    18.7994     0.5264    31.8858 </r>
       <r>    18.8854     0.4091    31.9210 </r>
       <r>    18.9714     0.5163    31.9654 </r>
       <r>    19.0575     0.1471    31.9781 </r>
       <r>    19.1435     0.1019    31.9868 </r>
       <r>    19.2295     0.1448    31.9993 </r>
       <r>    19.3155     0.0117    32.0003 </r>
       <r>    19.4016    -0.0042    31.9999 </r>
       <r>    19.4876     0.0007    32.0000 </r>
       <r>    19.5736     0.0000    32.0000 </r>
       <r>    19.6596     0.0000    32.0000 </r>
       <r>    19.7457     0.0000    32.0000 </r>
       <r>    19.8317     0.0000    32.0000 </r>
       <r>    19.9177     0.0000    32.0000 </r>
       <r>    20.0037     0.0000    32.0000 </r>
       <r>    20.0898     0.0000    32.0000 </r>
       <r>    20.1758     0.0000    32.0000 </r>
       <r>    20.2618     0.0000    32.0000 </r>
       <r>    20.3478     0.0000    32.0000 </r>
      </set>
     </set>
    </array>
   </total>
  </dos>
 </calculation>
 <structure name="finalpos" >
  <crystal>
   <varray name="basis" >
    <v>       3.82810615       0.00000000       0.00000000 </v>
    <v>       0.00000000       3.90623076       0.00000000 </v>
    <v>       0.00000000       0.00000000       3.90623076 </v>
   </varray>
   <i name="volume">     58.41168886 </i>
   <varray name="rec_basis" >
    <v>       0.26122578       0.00000000       0.00000000 </v>
    <v>       0.00000000       0.25600126       0.00000000 </v>
    <v>       0.00000000       0.00000000       0.25600126 </v>
   </varray>
  </crystal>
  <varray name="positions" >
   <v>       0.00000000       0.00000000       0.00000000 </v>
   <v>       0.50000000       0.50000000       0.00000000 </v>
   <v>       0.50000000       0.00000000       0.50000000 </v>
   <v>       0.00000000       0.50000000       0.50000000 </v>
  </varray>
 </structure>
</modeling>
