<?xml version="1.0" encoding="ISO-8859-1"?>
<modeling>
 <generator>
  <i name="program" type="string">vasp </i>
  <i name="version" type="string">5.4.1  </i>
  <i name="subversion" type="string">24Jun15 (build Jul  8 2015 13:29:37) complex                          parallel </i>
  <i name="platform" type="string">FX10FRT </i>
  <i name="date" type="string">2016 02 29 </i>
  <i name="time" type="string">21:57:07 </i>
 </generator>
 <incar>
  <i type="string" name="PREC">accurate</i>
  <i type="string" name="ALGO"> Normal</i>
  <i type="int" name="ISPIN">     1</i>
  <i type="int" name="IBRION">    -1</i>
  <i name="EDIFF">      0.00010000</i>
  <i type="int" name="NSW">     0</i>
  <i type="int" name="ISIF">     2</i>
  <i name="ENCUT">    400.00000000</i>
  <i type="int" name="ISMEAR">     2</i>
  <i name="SIGMA">      0.01000000</i>
  <i type="int" name="NWRITE">     1</i>
  <v type="int" name="KPOINT_BSE">    -1     0     0     0</v>
 </incar>
 <kpoints>
  <generation param="Monkhorst-Pack">
   <v type="int" name="divisions">       8        8        8 </v>
   <v name="usershift">      0.00000000       0.00000000       0.00000000 </v>
   <v name="genvec1">      0.12500000       0.00000000       0.00000000 </v>
   <v name="genvec2">      0.00000000       0.12500000       0.00000000 </v>
   <v name="genvec3">      0.00000000       0.00000000       0.12500000 </v>
   <v name="shift">      0.50000000       0.50000000       0.50000000 </v>
  </generation>
  <varray name="kpointlist" >
   <v>       0.06250000       0.06250000       0.06250000 </v>
   <v>       0.18750000       0.06250000       0.06250000 </v>
   <v>       0.31250000       0.06250000       0.06250000 </v>
   <v>       0.43750000       0.06250000       0.06250000 </v>
   <v>      -0.43750000       0.06250000       0.06250000 </v>
   <v>      -0.31250000       0.06250000       0.06250000 </v>
   <v>      -0.18750000       0.06250000       0.06250000 </v>
   <v>      -0.06250000       0.06250000       0.06250000 </v>
   <v>       0.06250000       0.18750000       0.06250000 </v>
   <v>       0.18750000       0.18750000       0.06250000 </v>
   <v>       0.31250000       0.18750000       0.06250000 </v>
   <v>       0.43750000       0.18750000       0.06250000 </v>
   <v>      -0.43750000       0.18750000       0.06250000 </v>
   <v>      -0.31250000       0.18750000       0.06250000 </v>
   <v>      -0.18750000       0.18750000       0.06250000 </v>
   <v>      -0.06250000       0.18750000       0.06250000 </v>
   <v>       0.06250000       0.31250000       0.06250000 </v>
   <v>       0.18750000       0.31250000       0.06250000 </v>
   <v>       0.31250000       0.31250000       0.06250000 </v>
   <v>       0.43750000       0.31250000       0.06250000 </v>
   <v>      -0.43750000       0.31250000       0.06250000 </v>
   <v>      -0.31250000       0.31250000       0.06250000 </v>
   <v>      -0.18750000       0.31250000       0.06250000 </v>
   <v>      -0.06250000       0.31250000       0.06250000 </v>
   <v>       0.06250000       0.43750000       0.06250000 </v>
   <v>       0.18750000       0.43750000       0.06250000 </v>
   <v>       0.31250000       0.43750000       0.06250000 </v>
   <v>       0.43750000       0.43750000       0.06250000 </v>
   <v>      -0.43750000       0.43750000       0.06250000 </v>
   <v>      -0.31250000       0.43750000       0.06250000 </v>
   <v>      -0.18750000       0.43750000       0.06250000 </v>
   <v>      -0.06250000       0.43750000       0.06250000 </v>
   <v>       0.06250000      -0.43750000       0.06250000 </v>
   <v>       0.18750000      -0.43750000       0.06250000 </v>
   <v>       0.31250000      -0.43750000       0.06250000 </v>
   <v>       0.43750000      -0.43750000       0.06250000 </v>
   <v>      -0.43750000      -0.43750000       0.06250000 </v>
   <v>      -0.31250000      -0.43750000       0.06250000 </v>
   <v>      -0.18750000      -0.43750000       0.06250000 </v>
   <v>      -0.06250000      -0.43750000       0.06250000 </v>
   <v>       0.06250000      -0.31250000       0.06250000 </v>
   <v>       0.18750000      -0.31250000       0.06250000 </v>
   <v>       0.31250000      -0.31250000       0.06250000 </v>
   <v>       0.43750000      -0.31250000       0.06250000 </v>
   <v>      -0.43750000      -0.31250000       0.06250000 </v>
   <v>      -0.31250000      -0.31250000       0.06250000 </v>
   <v>      -0.18750000      -0.31250000       0.06250000 </v>
   <v>      -0.06250000      -0.31250000       0.06250000 </v>
   <v>       0.06250000      -0.18750000       0.06250000 </v>
   <v>       0.18750000      -0.18750000       0.06250000 </v>
   <v>       0.31250000      -0.18750000       0.06250000 </v>
   <v>       0.43750000      -0.18750000       0.06250000 </v>
   <v>      -0.43750000      -0.18750000       0.06250000 </v>
   <v>      -0.31250000      -0.18750000       0.06250000 </v>
   <v>      -0.18750000      -0.18750000       0.06250000 </v>
   <v>      -0.06250000      -0.18750000       0.06250000 </v>
   <v>       0.06250000      -0.06250000       0.06250000 </v>
   <v>       0.18750000      -0.06250000       0.06250000 </v>
   <v>       0.31250000      -0.06250000       0.06250000 </v>
   <v>       0.43750000      -0.06250000       0.06250000 </v>
   <v>      -0.43750000      -0.06250000       0.06250000 </v>
   <v>      -0.31250000      -0.06250000       0.06250000 </v>
   <v>      -0.18750000      -0.06250000       0.06250000 </v>
   <v>      -0.06250000      -0.06250000       0.06250000 </v>
   <v>       0.06250000       0.06250000       0.18750000 </v>
   <v>       0.18750000       0.06250000       0.18750000 </v>
   <v>       0.31250000       0.06250000       0.18750000 </v>
   <v>       0.43750000       0.06250000       0.18750000 </v>
   <v>      -0.43750000       0.06250000       0.18750000 </v>
   <v>      -0.31250000       0.06250000       0.18750000 </v>
   <v>      -0.18750000       0.06250000       0.18750000 </v>
   <v>      -0.06250000       0.06250000       0.18750000 </v>
   <v>       0.06250000       0.18750000       0.18750000 </v>
   <v>       0.18750000       0.18750000       0.18750000 </v>
   <v>       0.31250000       0.18750000       0.18750000 </v>
   <v>       0.43750000       0.18750000       0.18750000 </v>
   <v>      -0.43750000       0.18750000       0.18750000 </v>
   <v>      -0.31250000       0.18750000       0.18750000 </v>
   <v>      -0.18750000       0.18750000       0.18750000 </v>
   <v>      -0.06250000       0.18750000       0.18750000 </v>
   <v>       0.06250000       0.31250000       0.18750000 </v>
   <v>       0.18750000       0.31250000       0.18750000 </v>
   <v>       0.31250000       0.31250000       0.18750000 </v>
   <v>       0.43750000       0.31250000       0.18750000 </v>
   <v>      -0.43750000       0.31250000       0.18750000 </v>
   <v>      -0.31250000       0.31250000       0.18750000 </v>
   <v>      -0.18750000       0.31250000       0.18750000 </v>
   <v>      -0.06250000       0.31250000       0.18750000 </v>
   <v>       0.06250000       0.43750000       0.18750000 </v>
   <v>       0.18750000       0.43750000       0.18750000 </v>
   <v>       0.31250000       0.43750000       0.18750000 </v>
   <v>       0.43750000       0.43750000       0.18750000 </v>
   <v>      -0.43750000       0.43750000       0.18750000 </v>
   <v>      -0.31250000       0.43750000       0.18750000 </v>
   <v>      -0.18750000       0.43750000       0.18750000 </v>
   <v>      -0.06250000       0.43750000       0.18750000 </v>
   <v>       0.06250000      -0.43750000       0.18750000 </v>
   <v>       0.18750000      -0.43750000       0.18750000 </v>
   <v>       0.31250000      -0.43750000       0.18750000 </v>
   <v>       0.43750000      -0.43750000       0.18750000 </v>
   <v>      -0.43750000      -0.43750000       0.18750000 </v>
   <v>      -0.31250000      -0.43750000       0.18750000 </v>
   <v>      -0.18750000      -0.43750000       0.18750000 </v>
   <v>      -0.06250000      -0.43750000       0.18750000 </v>
   <v>       0.06250000      -0.31250000       0.18750000 </v>
   <v>       0.18750000      -0.31250000       0.18750000 </v>
   <v>       0.31250000      -0.31250000       0.18750000 </v>
   <v>       0.43750000      -0.31250000       0.18750000 </v>
   <v>      -0.43750000      -0.31250000       0.18750000 </v>
   <v>      -0.31250000      -0.31250000       0.18750000 </v>
   <v>      -0.18750000      -0.31250000       0.18750000 </v>
   <v>      -0.06250000      -0.31250000       0.18750000 </v>
   <v>       0.06250000      -0.18750000       0.18750000 </v>
   <v>       0.18750000      -0.18750000       0.18750000 </v>
   <v>       0.31250000      -0.18750000       0.18750000 </v>
   <v>       0.43750000      -0.18750000       0.18750000 </v>
   <v>      -0.43750000      -0.18750000       0.18750000 </v>
   <v>      -0.31250000      -0.18750000       0.18750000 </v>
   <v>      -0.18750000      -0.18750000       0.18750000 </v>
   <v>      -0.06250000      -0.18750000       0.18750000 </v>
   <v>       0.06250000      -0.06250000       0.18750000 </v>
   <v>       0.18750000      -0.06250000       0.18750000 </v>
   <v>       0.31250000      -0.06250000       0.18750000 </v>
   <v>       0.43750000      -0.06250000       0.18750000 </v>
   <v>      -0.43750000      -0.06250000       0.18750000 </v>
   <v>      -0.31250000      -0.06250000       0.18750000 </v>
   <v>      -0.18750000      -0.06250000       0.18750000 </v>
   <v>      -0.06250000      -0.06250000       0.18750000 </v>
   <v>       0.06250000       0.06250000       0.31250000 </v>
   <v>       0.18750000       0.06250000       0.31250000 </v>
   <v>       0.31250000       0.06250000       0.31250000 </v>
   <v>       0.43750000       0.06250000       0.31250000 </v>
   <v>      -0.43750000       0.06250000       0.31250000 </v>
   <v>      -0.31250000       0.06250000       0.31250000 </v>
   <v>      -0.18750000       0.06250000       0.31250000 </v>
   <v>      -0.06250000       0.06250000       0.31250000 </v>
   <v>       0.06250000       0.18750000       0.31250000 </v>
   <v>       0.18750000       0.18750000       0.31250000 </v>
   <v>       0.31250000       0.18750000       0.31250000 </v>
   <v>       0.43750000       0.18750000       0.31250000 </v>
   <v>      -0.43750000       0.18750000       0.31250000 </v>
   <v>      -0.31250000       0.18750000       0.31250000 </v>
   <v>      -0.18750000       0.18750000       0.31250000 </v>
   <v>      -0.06250000       0.18750000       0.31250000 </v>
   <v>       0.06250000       0.31250000       0.31250000 </v>
   <v>       0.18750000       0.31250000       0.31250000 </v>
   <v>       0.31250000       0.31250000       0.31250000 </v>
   <v>       0.43750000       0.31250000       0.31250000 </v>
   <v>      -0.43750000       0.31250000       0.31250000 </v>
   <v>      -0.31250000       0.31250000       0.31250000 </v>
   <v>      -0.18750000       0.31250000       0.31250000 </v>
   <v>      -0.06250000       0.31250000       0.31250000 </v>
   <v>       0.06250000       0.43750000       0.31250000 </v>
   <v>       0.18750000       0.43750000       0.31250000 </v>
   <v>       0.31250000       0.43750000       0.31250000 </v>
   <v>       0.43750000       0.43750000       0.31250000 </v>
   <v>      -0.43750000       0.43750000       0.31250000 </v>
   <v>      -0.31250000       0.43750000       0.31250000 </v>
   <v>      -0.18750000       0.43750000       0.31250000 </v>
   <v>      -0.06250000       0.43750000       0.31250000 </v>
   <v>       0.06250000      -0.43750000       0.31250000 </v>
   <v>       0.18750000      -0.43750000       0.31250000 </v>
   <v>       0.31250000      -0.43750000       0.31250000 </v>
   <v>       0.43750000      -0.43750000       0.31250000 </v>
   <v>      -0.43750000      -0.43750000       0.31250000 </v>
   <v>      -0.31250000      -0.43750000       0.31250000 </v>
   <v>      -0.18750000      -0.43750000       0.31250000 </v>
   <v>      -0.06250000      -0.43750000       0.31250000 </v>
   <v>       0.06250000      -0.31250000       0.31250000 </v>
   <v>       0.18750000      -0.31250000       0.31250000 </v>
   <v>       0.31250000      -0.31250000       0.31250000 </v>
   <v>       0.43750000      -0.31250000       0.31250000 </v>
   <v>      -0.43750000      -0.31250000       0.31250000 </v>
   <v>      -0.31250000      -0.31250000       0.31250000 </v>
   <v>      -0.18750000      -0.31250000       0.31250000 </v>
   <v>      -0.06250000      -0.31250000       0.31250000 </v>
   <v>       0.06250000      -0.18750000       0.31250000 </v>
   <v>       0.18750000      -0.18750000       0.31250000 </v>
   <v>       0.31250000      -0.18750000       0.31250000 </v>
   <v>       0.43750000      -0.18750000       0.31250000 </v>
   <v>      -0.43750000      -0.18750000       0.31250000 </v>
   <v>      -0.31250000      -0.18750000       0.31250000 </v>
   <v>      -0.18750000      -0.18750000       0.31250000 </v>
   <v>      -0.06250000      -0.18750000       0.31250000 </v>
   <v>       0.06250000      -0.06250000       0.31250000 </v>
   <v>       0.18750000      -0.06250000       0.31250000 </v>
   <v>       0.31250000      -0.06250000       0.31250000 </v>
   <v>       0.43750000      -0.06250000       0.31250000 </v>
   <v>      -0.43750000      -0.06250000       0.31250000 </v>
   <v>      -0.31250000      -0.06250000       0.31250000 </v>
   <v>      -0.18750000      -0.06250000       0.31250000 </v>
   <v>      -0.06250000      -0.06250000       0.31250000 </v>
   <v>       0.06250000       0.06250000       0.43750000 </v>
   <v>       0.18750000       0.06250000       0.43750000 </v>
   <v>       0.31250000       0.06250000       0.43750000 </v>
   <v>       0.43750000       0.06250000       0.43750000 </v>
   <v>      -0.43750000       0.06250000       0.43750000 </v>
   <v>      -0.31250000       0.06250000       0.43750000 </v>
   <v>      -0.18750000       0.06250000       0.43750000 </v>
   <v>      -0.06250000       0.06250000       0.43750000 </v>
   <v>       0.06250000       0.18750000       0.43750000 </v>
   <v>       0.18750000       0.18750000       0.43750000 </v>
   <v>       0.31250000       0.18750000       0.43750000 </v>
   <v>       0.43750000       0.18750000       0.43750000 </v>
   <v>      -0.43750000       0.18750000       0.43750000 </v>
   <v>      -0.31250000       0.18750000       0.43750000 </v>
   <v>      -0.18750000       0.18750000       0.43750000 </v>
   <v>      -0.06250000       0.18750000       0.43750000 </v>
   <v>       0.06250000       0.31250000       0.43750000 </v>
   <v>       0.18750000       0.31250000       0.43750000 </v>
   <v>       0.31250000       0.31250000       0.43750000 </v>
   <v>       0.43750000       0.31250000       0.43750000 </v>
   <v>      -0.43750000       0.31250000       0.43750000 </v>
   <v>      -0.31250000       0.31250000       0.43750000 </v>
   <v>      -0.18750000       0.31250000       0.43750000 </v>
   <v>      -0.06250000       0.31250000       0.43750000 </v>
   <v>       0.06250000       0.43750000       0.43750000 </v>
   <v>       0.18750000       0.43750000       0.43750000 </v>
   <v>       0.31250000       0.43750000       0.43750000 </v>
   <v>       0.43750000       0.43750000       0.43750000 </v>
   <v>      -0.43750000       0.43750000       0.43750000 </v>
   <v>      -0.31250000       0.43750000       0.43750000 </v>
   <v>      -0.18750000       0.43750000       0.43750000 </v>
   <v>      -0.06250000       0.43750000       0.43750000 </v>
   <v>       0.06250000      -0.43750000       0.43750000 </v>
   <v>       0.18750000      -0.43750000       0.43750000 </v>
   <v>       0.31250000      -0.43750000       0.43750000 </v>
   <v>       0.43750000      -0.43750000       0.43750000 </v>
   <v>      -0.43750000      -0.43750000       0.43750000 </v>
   <v>      -0.31250000      -0.43750000       0.43750000 </v>
   <v>      -0.18750000      -0.43750000       0.43750000 </v>
   <v>      -0.06250000      -0.43750000       0.43750000 </v>
   <v>       0.06250000      -0.31250000       0.43750000 </v>
   <v>       0.18750000      -0.31250000       0.43750000 </v>
   <v>       0.31250000      -0.31250000       0.43750000 </v>
   <v>       0.43750000      -0.31250000       0.43750000 </v>
   <v>      -0.43750000      -0.31250000       0.43750000 </v>
   <v>      -0.31250000      -0.31250000       0.43750000 </v>
   <v>      -0.18750000      -0.31250000       0.43750000 </v>
   <v>      -0.06250000      -0.31250000       0.43750000 </v>
   <v>       0.06250000      -0.18750000       0.43750000 </v>
   <v>       0.18750000      -0.18750000       0.43750000 </v>
   <v>       0.31250000      -0.18750000       0.43750000 </v>
   <v>       0.43750000      -0.18750000       0.43750000 </v>
   <v>      -0.43750000      -0.18750000       0.43750000 </v>
   <v>      -0.31250000      -0.18750000       0.43750000 </v>
   <v>      -0.18750000      -0.18750000       0.43750000 </v>
   <v>      -0.06250000      -0.18750000       0.43750000 </v>
   <v>       0.06250000      -0.06250000       0.43750000 </v>
   <v>       0.18750000      -0.06250000       0.43750000 </v>
   <v>       0.31250000      -0.06250000       0.43750000 </v>
   <v>       0.43750000      -0.06250000       0.43750000 </v>
   <v>      -0.43750000      -0.06250000       0.43750000 </v>
   <v>      -0.31250000      -0.06250000       0.43750000 </v>
   <v>      -0.18750000      -0.06250000       0.43750000 </v>
   <v>      -0.06250000      -0.06250000       0.43750000 </v>
  </varray>
  <varray name="weights" >
   <v>       0.00390625 </v>
   <v>       0.00390625 </v>
   <v>       0.00390625 </v>
   <v>       0.00390625 </v>
   <v>       0.00390625 </v>
   <v>       0.00390625 </v>
   <v>       0.00390625 </v>
   <v>       0.00390625 </v>
   <v>       0.00390625 </v>
   <v>       0.00390625 </v>
   <v>       0.00390625 </v>
   <v>       0.00390625 </v>
   <v>       0.00390625 </v>
   <v>       0.00390625 </v>
   <v>       0.00390625 </v>
   <v>       0.00390625 </v>
   <v>       0.00390625 </v>
   <v>       0.00390625 </v>
   <v>       0.00390625 </v>
   <v>       0.00390625 </v>
   <v>       0.00390625 </v>
   <v>       0.00390625 </v>
   <v>       0.00390625 </v>
   <v>       0.00390625 </v>
   <v>       0.00390625 </v>
   <v>       0.00390625 </v>
   <v>       0.00390625 </v>
   <v>       0.00390625 </v>
   <v>       0.00390625 </v>
   <v>       0.00390625 </v>
   <v>       0.00390625 </v>
   <v>       0.00390625 </v>
   <v>       0.00390625 </v>
   <v>       0.00390625 </v>
   <v>       0.00390625 </v>
   <v>       0.00390625 </v>
   <v>       0.00390625 </v>
   <v>       0.00390625 </v>
   <v>       0.00390625 </v>
   <v>       0.00390625 </v>
   <v>       0.00390625 </v>
   <v>       0.00390625 </v>
   <v>       0.00390625 </v>
   <v>       0.00390625 </v>
   <v>       0.00390625 </v>
   <v>       0.00390625 </v>
   <v>       0.00390625 </v>
   <v>       0.00390625 </v>
   <v>       0.00390625 </v>
   <v>       0.00390625 </v>
   <v>       0.00390625 </v>
   <v>       0.00390625 </v>
   <v>       0.00390625 </v>
   <v>       0.00390625 </v>
   <v>       0.00390625 </v>
   <v>       0.00390625 </v>
   <v>       0.00390625 </v>
   <v>       0.00390625 </v>
   <v>       0.00390625 </v>
   <v>       0.00390625 </v>
   <v>       0.00390625 </v>
   <v>       0.00390625 </v>
   <v>       0.00390625 </v>
   <v>       0.00390625 </v>
   <v>       0.00390625 </v>
   <v>       0.00390625 </v>
   <v>       0.00390625 </v>
   <v>       0.00390625 </v>
   <v>       0.00390625 </v>
   <v>       0.00390625 </v>
   <v>       0.00390625 </v>
   <v>       0.00390625 </v>
   <v>       0.00390625 </v>
   <v>       0.00390625 </v>
   <v>       0.00390625 </v>
   <v>       0.00390625 </v>
   <v>       0.00390625 </v>
   <v>       0.00390625 </v>
   <v>       0.00390625 </v>
   <v>       0.00390625 </v>
   <v>       0.00390625 </v>
   <v>       0.00390625 </v>
   <v>       0.00390625 </v>
   <v>       0.00390625 </v>
   <v>       0.00390625 </v>
   <v>       0.00390625 </v>
   <v>       0.00390625 </v>
   <v>       0.00390625 </v>
   <v>       0.00390625 </v>
   <v>       0.00390625 </v>
   <v>       0.00390625 </v>
   <v>       0.00390625 </v>
   <v>       0.00390625 </v>
   <v>       0.00390625 </v>
   <v>       0.00390625 </v>
   <v>       0.00390625 </v>
   <v>       0.00390625 </v>
   <v>       0.00390625 </v>
   <v>       0.00390625 </v>
   <v>       0.00390625 </v>
   <v>       0.00390625 </v>
   <v>       0.00390625 </v>
   <v>       0.00390625 </v>
   <v>       0.00390625 </v>
   <v>       0.00390625 </v>
   <v>       0.00390625 </v>
   <v>       0.00390625 </v>
   <v>       0.00390625 </v>
   <v>       0.00390625 </v>
   <v>       0.00390625 </v>
   <v>       0.00390625 </v>
   <v>       0.00390625 </v>
   <v>       0.00390625 </v>
   <v>       0.00390625 </v>
   <v>       0.00390625 </v>
   <v>       0.00390625 </v>
   <v>       0.00390625 </v>
   <v>       0.00390625 </v>
   <v>       0.00390625 </v>
   <v>       0.00390625 </v>
   <v>       0.00390625 </v>
   <v>       0.00390625 </v>
   <v>       0.00390625 </v>
   <v>       0.00390625 </v>
   <v>       0.00390625 </v>
   <v>       0.00390625 </v>
   <v>       0.00390625 </v>
   <v>       0.00390625 </v>
   <v>       0.00390625 </v>
   <v>       0.00390625 </v>
   <v>       0.00390625 </v>
   <v>       0.00390625 </v>
   <v>       0.00390625 </v>
   <v>       0.00390625 </v>
   <v>       0.00390625 </v>
   <v>       0.00390625 </v>
   <v>       0.00390625 </v>
   <v>       0.00390625 </v>
   <v>       0.00390625 </v>
   <v>       0.00390625 </v>
   <v>       0.00390625 </v>
   <v>       0.00390625 </v>
   <v>       0.00390625 </v>
   <v>       0.00390625 </v>
   <v>       0.00390625 </v>
   <v>       0.00390625 </v>
   <v>       0.00390625 </v>
   <v>       0.00390625 </v>
   <v>       0.00390625 </v>
   <v>       0.00390625 </v>
   <v>       0.00390625 </v>
   <v>       0.00390625 </v>
   <v>       0.00390625 </v>
   <v>       0.00390625 </v>
   <v>       0.00390625 </v>
   <v>       0.00390625 </v>
   <v>       0.00390625 </v>
   <v>       0.00390625 </v>
   <v>       0.00390625 </v>
   <v>       0.00390625 </v>
   <v>       0.00390625 </v>
   <v>       0.00390625 </v>
   <v>       0.00390625 </v>
   <v>       0.00390625 </v>
   <v>       0.00390625 </v>
   <v>       0.00390625 </v>
   <v>       0.00390625 </v>
   <v>       0.00390625 </v>
   <v>       0.00390625 </v>
   <v>       0.00390625 </v>
   <v>       0.00390625 </v>
   <v>       0.00390625 </v>
   <v>       0.00390625 </v>
   <v>       0.00390625 </v>
   <v>       0.00390625 </v>
   <v>       0.00390625 </v>
   <v>       0.00390625 </v>
   <v>       0.00390625 </v>
   <v>       0.00390625 </v>
   <v>       0.00390625 </v>
   <v>       0.00390625 </v>
   <v>       0.00390625 </v>
   <v>       0.00390625 </v>
   <v>       0.00390625 </v>
   <v>       0.00390625 </v>
   <v>       0.00390625 </v>
   <v>       0.00390625 </v>
   <v>       0.00390625 </v>
   <v>       0.00390625 </v>
   <v>       0.00390625 </v>
   <v>       0.00390625 </v>
   <v>       0.00390625 </v>
   <v>       0.00390625 </v>
   <v>       0.00390625 </v>
   <v>       0.00390625 </v>
   <v>       0.00390625 </v>
   <v>       0.00390625 </v>
   <v>       0.00390625 </v>
   <v>       0.00390625 </v>
   <v>       0.00390625 </v>
   <v>       0.00390625 </v>
   <v>       0.00390625 </v>
   <v>       0.00390625 </v>
   <v>       0.00390625 </v>
   <v>       0.00390625 </v>
   <v>       0.00390625 </v>
   <v>       0.00390625 </v>
   <v>       0.00390625 </v>
   <v>       0.00390625 </v>
   <v>       0.00390625 </v>
   <v>       0.00390625 </v>
   <v>       0.00390625 </v>
   <v>       0.00390625 </v>
   <v>       0.00390625 </v>
   <v>       0.00390625 </v>
   <v>       0.00390625 </v>
   <v>       0.00390625 </v>
   <v>       0.00390625 </v>
   <v>       0.00390625 </v>
   <v>       0.00390625 </v>
   <v>       0.00390625 </v>
   <v>       0.00390625 </v>
   <v>       0.00390625 </v>
   <v>       0.00390625 </v>
   <v>       0.00390625 </v>
   <v>       0.00390625 </v>
   <v>       0.00390625 </v>
   <v>       0.00390625 </v>
   <v>       0.00390625 </v>
   <v>       0.00390625 </v>
   <v>       0.00390625 </v>
   <v>       0.00390625 </v>
   <v>       0.00390625 </v>
   <v>       0.00390625 </v>
   <v>       0.00390625 </v>
   <v>       0.00390625 </v>
   <v>       0.00390625 </v>
   <v>       0.00390625 </v>
   <v>       0.00390625 </v>
   <v>       0.00390625 </v>
   <v>       0.00390625 </v>
   <v>       0.00390625 </v>
   <v>       0.00390625 </v>
   <v>       0.00390625 </v>
   <v>       0.00390625 </v>
   <v>       0.00390625 </v>
   <v>       0.00390625 </v>
   <v>       0.00390625 </v>
   <v>       0.00390625 </v>
   <v>       0.00390625 </v>
   <v>       0.00390625 </v>
   <v>       0.00390625 </v>
   <v>       0.00390625 </v>
   <v>       0.00390625 </v>
   <v>       0.00390625 </v>
   <v>       0.00390625 </v>
  </varray>
 </kpoints>
 <parameters>
  <separator name="general" >
   <i type="string" name="SYSTEM">unknown system</i>
   <i type="logical" name="LCOMPAT"> F  </i>
  </separator>
  <separator name="electronic" >
   <i type="string" name="PREC">accura</i>
   <i name="ENMAX">    400.00000000</i>
   <i name="ENAUG">    322.06900000</i>
   <i name="EDIFF">      0.00010000</i>
   <i type="int" name="IALGO">    38</i>
   <i type="int" name="IWAVPR">    10</i>
   <i type="int" name="NBANDS">    24</i>
   <i name="NELECT">     32.00000000</i>
   <i type="int" name="TURBO">     0</i>
   <i type="int" name="IRESTART">     0</i>
   <i type="int" name="NREBOOT">     0</i>
   <i type="int" name="NMIN">     0</i>
   <i name="EREF">      0.00000000</i>
   <separator name="electronic smearing" >
    <i type="int" name="ISMEAR">     2</i>
    <i name="SIGMA">      0.01000000</i>
    <i name="KSPACING">      0.50000000</i>
    <i type="logical" name="KGAMMA"> T  </i>
   </separator>
   <separator name="electronic projectors" >
    <i type="logical" name="LREAL"> F  </i>
    <v name="ROPT">      0.00000000</v>
    <i type="int" name="LMAXPAW">  -100</i>
    <i type="int" name="LMAXMIX">     2</i>
    <i type="logical" name="NLSPLINE"> F  </i>
   </separator>
   <separator name="electronic startup" >
    <i type="int" name="ISTART">     0</i>
    <i type="int" name="ICHARG">     2</i>
    <i type="int" name="INIWAV">     1</i>
   </separator>
   <separator name="electronic spin" >
    <i type="int" name="ISPIN">     1</i>
    <i type="logical" name="LNONCOLLINEAR"> F  </i>
    <v name="MAGMOM">      1.00000000      1.00000000      1.00000000      1.00000000      1.00000000      1.00000000      1.00000000      1.00000000</v>
    <i name="NUPDOWN">     -1.00000000</i>
    <i type="logical" name="LSORBIT"> F  </i>
    <v name="SAXIS">      0.00000000      0.00000000      1.00000000</v>
    <i type="logical" name="LSPIRAL"> F  </i>
    <v name="QSPIRAL">      0.00000000      0.00000000      0.00000000</v>
    <i type="logical" name="LZEROZ"> F  </i>
   </separator>
   <separator name="electronic exchange-correlation" >
    <i type="logical" name="LASPH"> F  </i>
    <i type="logical" name="LMETAGGA"> F  </i>
   </separator>
   <separator name="electronic convergence" >
    <i type="int" name="NELM">    60</i>
    <i type="int" name="NELMDL">    -5</i>
    <i type="int" name="NELMIN">     2</i>
    <i name="ENINI">    400.00000000</i>
    <separator name="electronic convergence detail" >
     <i type="logical" name="LDIAG"> T  </i>
     <i type="logical" name="LSUBROT"> F  </i>
     <i name="WEIMIN">      0.00000000</i>
     <i name="EBREAK">      0.00000104</i>
     <i name="DEPER">      0.30000000</i>
     <i type="int" name="NRMM">     4</i>
     <i name="TIME">      0.40000000</i>
    </separator>
   </separator>
   <separator name="electronic mixer" >
    <i name="AMIX">      0.40000000</i>
    <i name="BMIX">      1.00000000</i>
    <i name="AMIN">      0.10000000</i>
    <i name="AMIX_MAG">      1.60000000</i>
    <i name="BMIX_MAG">      1.00000000</i>
    <separator name="electronic mixer details" >
     <i type="int" name="IMIX">     4</i>
     <i type="logical" name="MIXFIRST"> F  </i>
     <i type="int" name="MAXMIX">   -45</i>
     <i name="WC">    100.00000000</i>
     <i type="int" name="INIMIX">     1</i>
     <i type="int" name="MIXPRE">     1</i>
     <i type="int" name="MREMOVE">     5</i>
    </separator>
   </separator>
   <separator name="electronic dipolcorrection" >
    <i type="logical" name="LDIPOL"> F  </i>
    <i type="logical" name="LMONO"> F  </i>
    <i type="int" name="IDIPOL">     0</i>
    <i name="EPSILON">      1.00000000</i>
    <v name="DIPOL">   -100.00000000   -100.00000000   -100.00000000</v>
    <i name="EFIELD">      0.00000000</i>
   </separator>
  </separator>
  <separator name="grids" >
   <i type="int" name="NGX">    36</i>
   <i type="int" name="NGY">    36</i>
   <i type="int" name="NGZ">    36</i>
   <i type="int" name="NGXF">    72</i>
   <i type="int" name="NGYF">    72</i>
   <i type="int" name="NGZF">    72</i>
   <i type="logical" name="ADDGRID"> F  </i>
  </separator>
  <separator name="ionic" >
   <i type="int" name="NSW">     0</i>
   <i type="int" name="IBRION">    -1</i>
   <i type="int" name="ISIF">     2</i>
   <i name="PSTRESS">      0.00000000</i>
   <i name="EDIFFG">      0.00100000</i>
   <i type="int" name="NFREE">     0</i>
   <i name="POTIM">      0.50000000</i>
   <i name="SMASS">     -3.00000000</i>
   <i name="SCALEE">      1.00000000</i>
  </separator>
  <separator name="ionic md" >
   <i name="TEBEG">      0.00010000</i>
   <i name="TEEND">      0.00010000</i>
   <i type="int" name="NBLOCK">     1</i>
   <i type="int" name="KBLOCK">     1</i>
   <i type="int" name="NPACO">   256</i>
   <i name="APACO">     16.00000000</i>
  </separator>
  <separator name="symmetry" >
   <i type="int" name="ISYM">     2</i>
   <i name="SYMPREC">      0.00001000</i>
  </separator>
  <separator name="dos" >
   <i type="logical" name="LORBIT"> F  </i>
   <v name="RWIGS">     -1.00000000</v>
   <i type="int" name="NEDOS">   301</i>
   <i name="EMIN">     10.00000000</i>
   <i name="EMAX">    -10.00000000</i>
   <i name="EFERMI">      0.00000000</i>
  </separator>
  <separator name="writing" >
   <i type="int" name="NWRITE">     1</i>
   <i type="logical" name="LWAVE"> T  </i>
   <i type="logical" name="LCHARG"> T  </i>
   <i type="logical" name="LPARD"> F  </i>
   <i type="logical" name="LVTOT"> F  </i>
   <i type="logical" name="LVHAR"> F  </i>
   <i type="logical" name="LELF"> F  </i>
   <i type="logical" name="LOPTICS"> F  </i>
   <v name="STM">      0.00000000      0.00000000      0.00000000      0.00000000      0.00000000      0.00000000      0.00000000</v>
  </separator>
  <separator name="performance" >
   <i type="int" name="NPAR">     8</i>
   <i type="int" name="NSIM">     4</i>
   <i type="int" name="NBLK">    -1</i>
   <i type="logical" name="LPLANE"> T  </i>
   <i type="logical" name="LSCALAPACK"> T  </i>
   <i type="logical" name="LSCAAWARE"> F  </i>
   <i type="logical" name="LSCALU"> F  </i>
   <i type="logical" name="LASYNC"> F  </i>
   <i type="logical" name="LORBITALREAL"> F  </i>
  </separator>
  <separator name="miscellaneous" >
   <i type="int" name="IDIOT">     3</i>
   <i type="logical" name="LMUSIC"> F  </i>
   <v name="POMASS">     28.08500000</v>
   <v name="DARWINR">      0.00000000</v>
   <v name="DARWINV">      1.00000000</v>
   <i type="logical" name="LCORR"> T  </i>
  </separator>
  <i type="logical" name="GGA_COMPAT"> T  </i>
  <i type="logical" name="LBERRY"> F  </i>
  <i type="int" name="ICORELEVEL">     0</i>
  <i type="logical" name="LDAU"> F  </i>
  <i type="int" name="I_CONSTRAINED_M">     0</i>
  <separator name="electronic exchange-correlation" >
   <i type="string" name="GGA">--</i>
   <i type="int" name="VOSKOWN">     0</i>
   <i type="logical" name="LHFCALC"> F  </i>
   <i type="string" name="PRECFOCK"></i>
   <i type="logical" name="LSYMGRAD"> F  </i>
   <i type="logical" name="LHFONE"> F  </i>
   <i type="logical" name="LRHFCALC"> F  </i>
   <i type="logical" name="LTHOMAS"> F  </i>
   <i type="logical" name="LMODELHF"> F  </i>
   <i name="ENCUT4O">     -1.00000000</i>
   <i type="int" name="EXXOEP">     0</i>
   <i type="int" name="FOURORBIT">     0</i>
   <i name="AEXX">      0.00000000</i>
   <i name="HFALPHA">      0.00000000</i>
   <i name="MCALPHA">      0.00000000</i>
   <i name="ALDAX">      1.00000000</i>
   <i name="AGGAX">      1.00000000</i>
   <i name="ALDAC">      1.00000000</i>
   <i name="AGGAC">      1.00000000</i>
   <i type="int" name="NKREDX">     1</i>
   <i type="int" name="NKREDY">     1</i>
   <i type="int" name="NKREDZ">     1</i>
   <i type="logical" name="SHIFTRED"> F  </i>
   <i type="logical" name="ODDONLY"> F  </i>
   <i type="logical" name="EVENONLY"> F  </i>
   <i type="int" name="LMAXFOCK">     0</i>
   <i type="int" name="NMAXFOCKAE">     0</i>
   <i type="logical" name="LFOCKAEDFT"> F  </i>
   <i name="HFSCREEN">      0.00000000</i>
   <i name="HFSCREENC">      0.00000000</i>
   <i type="int" name="NBANDSGWLOW">     0</i>
  </separator>
  <separator name="vdW DFT" >
   <i type="logical" name="LUSE_VDW"> F  </i>
   <i name="Zab_VDW">     -0.84910000</i>
   <i name="PARAM1">      0.12340000</i>
   <i name="PARAM2">      1.00000000</i>
   <i name="PARAM3">      0.00000000</i>
  </separator>
  <separator name="model GW" >
   <i type="int" name="MODEL_GW">     0</i>
   <i name="MODEL_EPS0">     12.26874997</i>
   <i name="MODEL_ALPHA">      1.00000000</i>
  </separator>
  <separator name="linear response parameters" >
   <i type="logical" name="LEPSILON"> F  </i>
   <i type="logical" name="LRPA"> F  </i>
   <i type="logical" name="LNABLA"> F  </i>
   <i type="logical" name="LVEL"> F  </i>
   <i type="int" name="KINTER">     0</i>
   <i name="CSHIFT">      0.10000000</i>
   <i name="OMEGAMAX">     -1.00000000</i>
   <i name="DEG_THRESHOLD">      0.00200000</i>
  </separator>
  <separator name="orbital magnetization" >
   <i type="logical" name="NUCIND"> F  </i>
   <v name="MAGPOS">      0.00000000      0.00000000      0.00000000</v>
   <i type="logical" name="LNICSALL"> T  </i>
   <i type="logical" name="ORBITALMAG"> F  </i>
   <i type="logical" name="LMAGBLOCH"> F  </i>
   <i type="logical" name="LCHIMAG"> F  </i>
   <i type="logical" name="LGAUGE"> T  </i>
   <i type="int" name="MAGATOM">     0</i>
   <v name="MAGDIPOL">      0.00000000      0.00000000      0.00000000</v>
   <v name="AVECCONST">      0.00000000      0.00000000      0.00000000</v>
  </separator>
  <separator name="response functions" >
   <i type="logical" name="LADDER"> F  </i>
   <i type="logical" name="LFXC"> F  </i>
   <i type="logical" name="LHARTREE"> T  </i>
   <i type="int" name="IBSE">     0</i>
   <v type="int" name="KPOINT">    -1     0     0     0</v>
   <i type="logical" name="LTCTE"> F  </i>
   <i type="logical" name="LTETE"> F  </i>
   <i type="logical" name="LTRIPLET"> F  </i>
   <i type="logical" name="LFXCEPS"> F  </i>
   <i type="logical" name="LFXHEG"> F  </i>
   <i type="int" name="NATURALO">     0</i>
   <i type="logical" name="L2ORDER"> F  </i>
   <i type="logical" name="LUSEW"> F  </i>
   <i name="ENCUTGW">     -2.00000000</i>
   <i name="ENCUTGWSOFT">     -2.00000000</i>
   <i name="ENCUTLF">     -1.00000000</i>
   <i type="int" name="LMAXMP2">    -1</i>
   <i name="SCISSOR">      0.00000000</i>
   <i type="int" name="NOMEGA">     0</i>
   <i type="int" name="NOMEGAR">     0</i>
   <i type="int" name="NBANDSGW">    -1</i>
   <i type="int" name="NBANDSO">    -1</i>
   <i type="int" name="NBANDSV">    -1</i>
   <i type="int" name="NELM">     1</i>
   <i type="int" name="NELMHF">     1</i>
   <i type="int" name="DIM">     3</i>
   <i type="int" name="ANTIRES">     0</i>
   <i name="OMEGAMAX">    -30.00000000</i>
   <i name="OMEGAMIN">    -30.00000000</i>
   <i name="OMEGATL">   -200.00000000</i>
   <i type="int" name="OMEGAGRID">     0</i>
   <i name="CSHIFT">     -0.10000000</i>
   <i type="logical" name="SELFENERGY"> F  </i>
   <i type="logical" name="LSPECTRAL"> F  </i>
   <i type="logical" name="LSPECTRALGW"> F  </i>
   <i type="logical" name="LSINGLES"> F  </i>
   <i type="logical" name="LFERMIGW"> F  </i>
   <i type="logical" name="ODDONLYGW"> F  </i>
   <i type="logical" name="EVENONLYGW"> F  </i>
   <i type="int" name="NKREDLFX">     1</i>
   <i type="int" name="NKREDLFY">     1</i>
   <i type="int" name="NKREDLFZ">     1</i>
   <i type="int" name="MAXMEM">  1800</i>
   <i type="int" name="TELESCOPE">     0</i>
   <i type="int" name="TAUPAR">     1</i>
   <i type="int" name="OMEGAPAR">    -1</i>
   <i name="LAMBDA">      1.00000000</i>
  </separator>
  <separator name="External order field" >
   <i name="OFIELD_KAPPA">      0.00000000</i>
   <v name="OFIELD_K">      0.00000000      0.00000000      0.00000000</v>
   <i name="OFIELD_Q6_NEAR">      0.00000000</i>
   <i name="OFIELD_Q6_FAR">      0.00000000</i>
   <i name="OFIELD_A">      0.00000000</i>
  </separator>
 </parameters>
 <atominfo>
  <atoms>       8 </atoms>
  <types>       1 </types>
  <array name="atoms" >
   <dimension dim="1">ion</dimension>
   <field type="string">element</field>
   <field type="int">atomtype</field>
   <set>
    <rc><c>Si</c><c>   1</c></rc>
    <rc><c>Si</c><c>   1</c></rc>
    <rc><c>Si</c><c>   1</c></rc>
    <rc><c>Si</c><c>   1</c></rc>
    <rc><c>Si</c><c>   1</c></rc>
    <rc><c>Si</c><c>   1</c></rc>
    <rc><c>Si</c><c>   1</c></rc>
    <rc><c>Si</c><c>   1</c></rc>
   </set>
  </array>
  <array name="atomtypes" >
   <dimension dim="1">type</dimension>
   <field type="int">atomspertype</field>
   <field type="string">element</field>
   <field>mass</field>
   <field>valence</field>
   <field type="string">pseudopotential</field>
   <set>
    <rc><c>   8</c><c>Si</c><c>     28.08500000</c><c>      4.00000000</c><c>  PAW_PBE Si 05Jan2001                  </c></rc>
   </set>
  </array>
 </atominfo>
 <structure name="initialpos" >
  <crystal>
   <varray name="basis" >
    <v>       5.46906415       0.00000000       0.00000000 </v>
    <v>       0.00000000       5.46906415       0.00000000 </v>
    <v>       0.00000000       0.00000000       5.46906415 </v>
   </varray>
   <i name="volume">    163.58333295 </i>
   <varray name="rec_basis" >
    <v>       0.18284664       0.00000000       0.00000000 </v>
    <v>       0.00000000       0.18284664       0.00000000 </v>
    <v>       0.00000000       0.00000000       0.18284664 </v>
   </varray>
  </crystal>
  <varray name="positions" >
   <v>       0.15999109       0.00228806       0.09787759 </v>
   <v>       0.39525739       0.24920367       0.34902261 </v>
   <v>       0.63071556       0.49879683       0.08083222 </v>
   <v>       0.89701951       0.75248971       0.33054660 </v>
   <v>       0.65655977       0.99710800       0.59249877 </v>
   <v>       0.89815044       0.25173063       0.84176943 </v>
   <v>       0.14377416       0.51728696       0.59681602 </v>
   <v>       0.40166359       0.76809037       0.83874088 </v>
  </varray>
 </structure>
 <calculation>
  <scstep>
   <time name="dav">    6.16    6.22</time>
   <time name="total">    6.23    6.30</time>
   <energy>
    <i name="alphaZ">     13.17029267 </i>
    <i name="ewald">   -907.63812110 </i>
    <i name="hartreedc">    -45.39961741 </i>
    <i name="XCdc">    -74.74878938 </i>
    <i name="pawpsdc">    704.99039692 </i>
    <i name="pawaedc">   -564.24414232 </i>
    <i name="eentropy">     -0.00001080 </i>
    <i name="bandstr">    103.82851681 </i>
    <i name="atom">    824.52596983 </i>
    <i name="e_fr_energy">     54.48449521 </i>
    <i name="e_wo_entrp">     54.48450601 </i>
    <i name="e_0_energy">     54.48449791 </i>
   </energy>
  </scstep>
  <scstep>
   <time name="dav">    7.57    7.58</time>
   <time name="total">    7.58    7.61</time>
   <energy>
    <i name="e_fr_energy">    -39.70330059 </i>
    <i name="e_wo_entrp">    -39.70330059 </i>
    <i name="e_0_energy">    -39.70330059 </i>
   </energy>
  </scstep>
  <scstep>
   <time name="dav">    7.53    7.52</time>
   <time name="total">    7.53    7.53</time>
   <energy>
    <i name="e_fr_energy">    -43.86359634 </i>
    <i name="e_wo_entrp">    -43.86359634 </i>
    <i name="e_0_energy">    -43.86359634 </i>
   </energy>
  </scstep>
  <scstep>
   <time name="dav">    7.30    7.30</time>
   <time name="total">    7.30    7.32</time>
   <energy>
    <i name="e_fr_energy">    -43.93466317 </i>
    <i name="e_wo_entrp">    -43.93466317 </i>
    <i name="e_0_energy">    -43.93466317 </i>
   </energy>
  </scstep>
  <scstep>
   <time name="dav">    7.57    7.58</time>
   <time name="total">    7.80    7.82</time>
   <energy>
    <i name="e_fr_energy">    -43.93642636 </i>
    <i name="e_wo_entrp">    -43.93642636 </i>
    <i name="e_0_energy">    -43.93642636 </i>
   </energy>
  </scstep>
  <scstep>
   <time name="dav">    7.14    7.13</time>
   <time name="total">    7.36    7.38</time>
   <energy>
    <i name="e_fr_energy">    -43.46812563 </i>
    <i name="e_wo_entrp">    -43.46812563 </i>
    <i name="e_0_energy">    -43.46812563 </i>
   </energy>
  </scstep>
  <scstep>
   <time name="dav">    6.97    6.97</time>
   <time name="total">    7.20    7.22</time>
   <energy>
    <i name="e_fr_energy">    -43.25465175 </i>
    <i name="e_wo_entrp">    -43.25465175 </i>
    <i name="e_0_energy">    -43.25465175 </i>
   </energy>
  </scstep>
  <scstep>
   <time name="dav">    7.31    7.31</time>
   <time name="total">    7.54    7.55</time>
   <energy>
    <i name="e_fr_energy">    -43.25877339 </i>
    <i name="e_wo_entrp">    -43.25877339 </i>
    <i name="e_0_energy">    -43.25877339 </i>
   </energy>
  </scstep>
  <scstep>
   <time name="dav">    7.51    7.50</time>
   <time name="total">    7.74    7.75</time>
   <energy>
    <i name="e_fr_energy">    -43.25971094 </i>
    <i name="e_wo_entrp">    -43.25971094 </i>
    <i name="e_0_energy">    -43.25971094 </i>
   </energy>
  </scstep>
  <scstep>
   <time name="dav">    6.89    6.89</time>
   <time name="total">    7.12    7.14</time>
   <energy>
    <i name="e_fr_energy">    -43.25988065 </i>
    <i name="e_wo_entrp">    -43.25988065 </i>
    <i name="e_0_energy">    -43.25988065 </i>
   </energy>
  </scstep>
  <scstep>
   <time name="dav">    5.93    5.93</time>
   <time name="total">    5.97    5.98</time>
   <energy>
    <i name="alphaZ">     13.17029267 </i>
    <i name="ewald">   -907.63812110 </i>
    <i name="hartreedc">    -60.66886412 </i>
    <i name="XCdc">    -72.26203564 </i>
    <i name="pawpsdc">   3307.07616566 </i>
    <i name="pawaedc">  -3167.14814852 </i>
    <i name="eentropy">      0.00000000 </i>
    <i name="bandstr">     19.68481150 </i>
    <i name="atom">    824.52596983 </i>
    <i name="e_fr_energy">    -43.25992973 </i>
    <i name="e_wo_entrp">    -43.25992973 </i>
    <i name="e_0_energy">    -43.25992973 </i>
   </energy>
  </scstep>
  <structure>
   <crystal>
    <varray name="basis" >
     <v>       5.46906415       0.00000000       0.00000000 </v>
     <v>       0.00000000       5.46906415       0.00000000 </v>
     <v>       0.00000000       0.00000000       5.46906415 </v>
    </varray>
    <i name="volume">    163.58333295 </i>
    <varray name="rec_basis" >
     <v>       0.18284664       0.00000000       0.00000000 </v>
     <v>       0.00000000       0.18284664       0.00000000 </v>
     <v>       0.00000000       0.00000000       0.18284664 </v>
    </varray>
   </crystal>
   <varray name="positions" >
    <v>       0.15999109       0.00228806       0.09787759 </v>
    <v>       0.39525739       0.24920367       0.34902261 </v>
    <v>       0.63071556       0.49879683       0.08083222 </v>
    <v>       0.89701951       0.75248971       0.33054660 </v>
    <v>       0.65655977       0.99710800       0.59249877 </v>
    <v>       0.89815044       0.25173063       0.84176943 </v>
    <v>       0.14377416       0.51728696       0.59681602 </v>
    <v>       0.40166359       0.76809037       0.83874088 </v>
   </varray>
  </structure>
  <varray name="forces" >
   <v>      -0.82348388       0.35922148      -0.30243884 </v>
   <v>       0.18340785       0.58649481       0.39433782 </v>
   <v>       0.65389334      -0.03190031       0.48180305 </v>
   <v>      -0.23278050      -0.41694033      -0.04926309 </v>
   <v>       0.12799486       0.54733300      -0.50358730 </v>
   <v>       0.27973498       0.15719141       0.23919925 </v>
   <v>       0.07275950      -0.53454070      -0.26580745 </v>
   <v>      -0.26152615      -0.66685936       0.00575656 </v>
  </varray>
  <varray name="stress" >
   <v>      -0.24679769       4.34606871      -3.42868992 </v>
   <v>       4.34606893      -0.37616594       0.53851910 </v>
   <v>      -3.42868990       0.53851908       1.10544786 </v>
  </varray>
  <energy>
   <i name="e_fr_energy">    -43.25992973 </i>
   <i name="e_wo_entrp">    -43.25992973 </i>
   <i name="e_0_energy">      0.00000000 </i>
  </energy>
  <time name="totalsc">   84.57   84.92</time>
  <eigenvalues>
   <array>
    <dimension dim="1">band</dimension>
    <dimension dim="2">kpoint</dimension>
    <dimension dim="3">spin</dimension>
    <field>eigene</field>
    <field>occ</field>
    <set>
     <set comment="spin 1">
      <set comment="kpoint 1">
       <r>   -6.1597    1.0000 </r>
       <r>   -2.6415    1.0000 </r>
       <r>   -2.6063    1.0000 </r>
       <r>   -2.5391    1.0000 </r>
       <r>   -1.6843    1.0000 </r>
       <r>   -1.6209    1.0000 </r>
       <r>   -1.5759    1.0000 </r>
       <r>    2.5773    1.0000 </r>
       <r>    2.6300    1.0000 </r>
       <r>    2.6631    1.0000 </r>
       <r>    2.8349    1.0000 </r>
       <r>    2.8593    1.0000 </r>
       <r>    2.9137    1.0000 </r>
       <r>    5.0687    1.0000 </r>
       <r>    5.4858    1.0000 </r>
       <r>    5.5981    1.0000 </r>
       <r>    6.3139    0.0000 </r>
       <r>    6.3457    0.0000 </r>
       <r>    6.3750    0.0000 </r>
       <r>    6.6826    0.0000 </r>
       <r>    6.7886    0.0000 </r>
       <r>    6.8343    0.0000 </r>
       <r>    8.2305    0.0000 </r>
       <r>    8.2847    0.0000 </r>
      </set>
      <set comment="kpoint 2">
       <r>   -6.0264    1.0000 </r>
       <r>   -3.4457    1.0000 </r>
       <r>   -2.5746    1.0000 </r>
       <r>   -2.4996    1.0000 </r>
       <r>   -1.6404    1.0000 </r>
       <r>   -1.5918    1.0000 </r>
       <r>   -0.6304    1.0000 </r>
       <r>    2.1845    1.0000 </r>
       <r>    2.2280    1.0000 </r>
       <r>    2.6995    1.0000 </r>
       <r>    2.7337    1.0000 </r>
       <r>    2.8055    1.0000 </r>
       <r>    2.9955    1.0000 </r>
       <r>    4.3350    1.0000 </r>
       <r>    5.1159    1.0000 </r>
       <r>    5.2883    1.0000 </r>
       <r>    6.3732    0.0000 </r>
       <r>    6.7529    0.0000 </r>
       <r>    6.8059    0.0000 </r>
       <r>    7.1190    0.0000 </r>
       <r>    7.4951    0.0000 </r>
       <r>    7.5870    0.0000 </r>
       <r>    8.0268    0.0000 </r>
       <r>    8.5876    0.0000 </r>
      </set>
      <set comment="kpoint 3">
       <r>   -5.7617    1.0000 </r>
       <r>   -4.1944    1.0000 </r>
       <r>   -2.4982    1.0000 </r>
       <r>   -2.4134    1.0000 </r>
       <r>   -1.6278    1.0000 </r>
       <r>   -1.5660    1.0000 </r>
       <r>    0.4007    1.0000 </r>
       <r>    1.8261    1.0000 </r>
       <r>    1.8572    1.0000 </r>
       <r>    2.4076    1.0000 </r>
       <r>    2.4711    1.0000 </r>
       <r>    3.0313    1.0000 </r>
       <r>    3.2285    1.0000 </r>
       <r>    3.4611    1.0000 </r>
       <r>    4.5687    1.0000 </r>
       <r>    4.6637    1.0000 </r>
       <r>    6.5106    0.0000 </r>
       <r>    7.4732    0.0000 </r>
       <r>    7.6564    0.0000 </r>
       <r>    7.7275    0.0000 </r>
       <r>    7.8628    0.0000 </r>
       <r>    8.6239    0.0000 </r>
       <r>    8.6988    0.0000 </r>
       <r>    9.3410    0.0000 </r>
      </set>
      <set comment="kpoint 4">
       <r>   -5.3735    1.0000 </r>
       <r>   -4.8275    1.0000 </r>
       <r>   -2.4385    1.0000 </r>
       <r>   -2.3430    1.0000 </r>
       <r>   -1.6271    1.0000 </r>
       <r>   -1.5519    1.0000 </r>
       <r>    1.3974    1.0000 </r>
       <r>    1.6499    1.0000 </r>
       <r>    1.6832    1.0000 </r>
       <r>    2.1787    1.0000 </r>
       <r>    2.2590    1.0000 </r>
       <r>    2.4925    1.0000 </r>
       <r>    3.4503    1.0000 </r>
       <r>    3.5679    1.0000 </r>
       <r>    4.0173    1.0000 </r>
       <r>    4.0590    1.0000 </r>
       <r>    6.7705    0.0000 </r>
       <r>    7.1400    0.0000 </r>
       <r>    8.3852    0.0000 </r>
       <r>    8.9180    0.0000 </r>
       <r>    9.0308    0.0000 </r>
       <r>    9.2568    0.0000 </r>
       <r>    9.8670    0.0000 </r>
       <r>    9.9126    0.0000 </r>
      </set>
      <set comment="kpoint 5">
       <r>   -5.3732    1.0000 </r>
       <r>   -4.8283    1.0000 </r>
       <r>   -2.4358    1.0000 </r>
       <r>   -2.3413    1.0000 </r>
       <r>   -1.6299    1.0000 </r>
       <r>   -1.5538    1.0000 </r>
       <r>    1.4127    1.0000 </r>
       <r>    1.6156    1.0000 </r>
       <r>    1.6830    1.0000 </r>
       <r>    2.2000    1.0000 </r>
       <r>    2.2449    1.0000 </r>
       <r>    2.5120    1.0000 </r>
       <r>    3.4609    1.0000 </r>
       <r>    3.5668    1.0000 </r>
       <r>    3.9998    1.0000 </r>
       <r>    4.0609    1.0000 </r>
       <r>    6.7639    0.0000 </r>
       <r>    7.1466    0.0000 </r>
       <r>    8.3819    0.0000 </r>
       <r>    8.9340    0.0000 </r>
       <r>    9.0050    0.0000 </r>
       <r>    9.2663    0.0000 </r>
       <r>    9.8378    0.0000 </r>
       <r>    9.9311    0.0000 </r>
      </set>
      <set comment="kpoint 6">
       <r>   -5.7616    1.0000 </r>
       <r>   -4.1965    1.0000 </r>
       <r>   -2.4899    1.0000 </r>
       <r>   -2.4090    1.0000 </r>
       <r>   -1.6357    1.0000 </r>
       <r>   -1.5713    1.0000 </r>
       <r>    0.3977    1.0000 </r>
       <r>    1.8176    1.0000 </r>
       <r>    1.8618    1.0000 </r>
       <r>    2.4121    1.0000 </r>
       <r>    2.4640    1.0000 </r>
       <r>    3.0578    1.0000 </r>
       <r>    3.2285    1.0000 </r>
       <r>    3.4687    1.0000 </r>
       <r>    4.5655    1.0000 </r>
       <r>    4.6466    1.0000 </r>
       <r>    6.5029    0.0000 </r>
       <r>    7.5073    0.0000 </r>
       <r>    7.6061    0.0000 </r>
       <r>    7.7589    0.0000 </r>
       <r>    7.8376    0.0000 </r>
       <r>    8.6159    0.0000 </r>
       <r>    8.7199    0.0000 </r>
       <r>    9.3391    0.0000 </r>
      </set>
      <set comment="kpoint 7">
       <r>   -6.0264    1.0000 </r>
       <r>   -3.4533    1.0000 </r>
       <r>   -2.5569    1.0000 </r>
       <r>   -2.4922    1.0000 </r>
       <r>   -1.6547    1.0000 </r>
       <r>   -1.6011    1.0000 </r>
       <r>   -0.6284    1.0000 </r>
       <r>    2.1841    1.0000 </r>
       <r>    2.2248    1.0000 </r>
       <r>    2.6727    1.0000 </r>
       <r>    2.7627    1.0000 </r>
       <r>    2.8167    1.0000 </r>
       <r>    2.9963    1.0000 </r>
       <r>    4.3547    1.0000 </r>
       <r>    5.1147    1.0000 </r>
       <r>    5.2634    1.0000 </r>
       <r>    6.3595    0.0000 </r>
       <r>    6.7552    0.0000 </r>
       <r>    6.8384    0.0000 </r>
       <r>    7.0736    0.0000 </r>
       <r>    7.4841    0.0000 </r>
       <r>    7.6141    0.0000 </r>
       <r>    8.0306    0.0000 </r>
       <r>    8.5839    0.0000 </r>
      </set>
      <set comment="kpoint 8">
       <r>   -6.1597    1.0000 </r>
       <r>   -2.7242    1.0000 </r>
       <r>   -2.5706    1.0000 </r>
       <r>   -2.4594    1.0000 </r>
       <r>   -1.7711    1.0000 </r>
       <r>   -1.6334    1.0000 </r>
       <r>   -1.5107    1.0000 </r>
       <r>    2.5771    1.0000 </r>
       <r>    2.6072    1.0000 </r>
       <r>    2.6850    1.0000 </r>
       <r>    2.8221    1.0000 </r>
       <r>    2.8841    1.0000 </r>
       <r>    2.9074    1.0000 </r>
       <r>    5.0936    1.0000 </r>
       <r>    5.4641    1.0000 </r>
       <r>    5.5835    1.0000 </r>
       <r>    6.2577    0.0000 </r>
       <r>    6.3696    0.0000 </r>
       <r>    6.4723    0.0000 </r>
       <r>    6.6332    0.0000 </r>
       <r>    6.7141    0.0000 </r>
       <r>    6.8986    0.0000 </r>
       <r>    8.2035    0.0000 </r>
       <r>    8.3042    0.0000 </r>
      </set>
      <set comment="kpoint 9">
       <r>   -6.0268    1.0000 </r>
       <r>   -3.4374    1.0000 </r>
       <r>   -2.5649    1.0000 </r>
       <r>   -2.5305    1.0000 </r>
       <r>   -1.6220    1.0000 </r>
       <r>   -1.5947    1.0000 </r>
       <r>   -0.6306    1.0000 </r>
       <r>    2.1749    1.0000 </r>
       <r>    2.2254    1.0000 </r>
       <r>    2.7137    1.0000 </r>
       <r>    2.7636    1.0000 </r>
       <r>    2.8077    1.0000 </r>
       <r>    2.9572    1.0000 </r>
       <r>    4.3230    1.0000 </r>
       <r>    5.0918    1.0000 </r>
       <r>    5.3372    1.0000 </r>
       <r>    6.3670    0.0000 </r>
       <r>    6.7742    0.0000 </r>
       <r>    6.8056    0.0000 </r>
       <r>    7.0741    0.0000 </r>
       <r>    7.5356    0.0000 </r>
       <r>    7.5679    0.0000 </r>
       <r>    8.0286    0.0000 </r>
       <r>    8.5865    0.0000 </r>
      </set>
      <set comment="kpoint 10">
       <r>   -5.8945    1.0000 </r>
       <r>   -3.3968    1.0000 </r>
       <r>   -3.3233    1.0000 </r>
       <r>   -2.5367    1.0000 </r>
       <r>   -1.5937    1.0000 </r>
       <r>   -0.7332    1.0000 </r>
       <r>   -0.6368    1.0000 </r>
       <r>    1.7354    1.0000 </r>
       <r>    2.3513    1.0000 </r>
       <r>    2.3845    1.0000 </r>
       <r>    2.8406    1.0000 </r>
       <r>    2.9072    1.0000 </r>
       <r>    3.1102    1.0000 </r>
       <r>    3.5795    1.0000 </r>
       <r>    4.7342    1.0000 </r>
       <r>    5.4797    1.0000 </r>
       <r>    6.6497    0.0000 </r>
       <r>    6.8520    0.0000 </r>
       <r>    6.9170    0.0000 </r>
       <r>    7.7206    0.0000 </r>
       <r>    7.8346    0.0000 </r>
       <r>    8.2915    0.0000 </r>
       <r>    8.5237    0.0000 </r>
       <r>    8.5399    0.0000 </r>
      </set>
      <set comment="kpoint 11">
       <r>   -5.6324    1.0000 </r>
       <r>   -4.0944    1.0000 </r>
       <r>   -3.2033    1.0000 </r>
       <r>   -2.5986    1.0000 </r>
       <r>   -1.4956    1.0000 </r>
       <r>   -0.8157    1.0000 </r>
       <r>    0.2341    1.0000 </r>
       <r>    1.4761    1.0000 </r>
       <r>    1.9595    1.0000 </r>
       <r>    2.6318    1.0000 </r>
       <r>    2.6739    1.0000 </r>
       <r>    2.8186    1.0000 </r>
       <r>    3.0721    1.0000 </r>
       <r>    3.2280    1.0000 </r>
       <r>    4.1724    1.0000 </r>
       <r>    5.0964    1.0000 </r>
       <r>    7.0831    0.0000 </r>
       <r>    7.1749    0.0000 </r>
       <r>    7.8164    0.0000 </r>
       <r>    8.1052    0.0000 </r>
       <r>    8.3081    0.0000 </r>
       <r>    8.7936    0.0000 </r>
       <r>    8.9156    0.0000 </r>
       <r>    9.5537    0.0000 </r>
      </set>
      <set comment="kpoint 12">
       <r>   -5.2490    1.0000 </r>
       <r>   -4.7138    1.0000 </r>
       <r>   -3.0125    1.0000 </r>
       <r>   -2.7457    1.0000 </r>
       <r>   -1.3157    1.0000 </r>
       <r>   -1.0129    1.0000 </r>
       <r>    1.0969    1.0000 </r>
       <r>    1.4698    1.0000 </r>
       <r>    1.6175    1.0000 </r>
       <r>    1.9602    1.0000 </r>
       <r>    2.6609    1.0000 </r>
       <r>    2.8633    1.0000 </r>
       <r>    3.1183    1.0000 </r>
       <r>    3.5686    1.0000 </r>
       <r>    3.7535    1.0000 </r>
       <r>    4.4337    1.0000 </r>
       <r>    7.3758    0.0000 </r>
       <r>    7.7278    0.0000 </r>
       <r>    8.2102    0.0000 </r>
       <r>    8.9192    0.0000 </r>
       <r>    9.0482    0.0000 </r>
       <r>    9.3732    0.0000 </r>
       <r>    9.5281    0.0000 </r>
       <r>   10.0601    0.0000 </r>
      </set>
      <set comment="kpoint 13">
       <r>   -5.2514    1.0000 </r>
       <r>   -4.7106    1.0000 </r>
       <r>   -2.9809    1.0000 </r>
       <r>   -2.7878    1.0000 </r>
       <r>   -1.2365    1.0000 </r>
       <r>   -1.0849    1.0000 </r>
       <r>    1.0602    1.0000 </r>
       <r>    1.4765    1.0000 </r>
       <r>    1.6117    1.0000 </r>
       <r>    2.0025    1.0000 </r>
       <r>    2.7243    1.0000 </r>
       <r>    2.7929    1.0000 </r>
       <r>    3.1257    1.0000 </r>
       <r>    3.5974    1.0000 </r>
       <r>    3.7915    1.0000 </r>
       <r>    4.3596    1.0000 </r>
       <r>    7.3533    0.0000 </r>
       <r>    7.7601    0.0000 </r>
       <r>    8.1572    0.0000 </r>
       <r>    8.9052    0.0000 </r>
       <r>    9.0827    0.0000 </r>
       <r>    9.3804    0.0000 </r>
       <r>    9.5613    0.0000 </r>
       <r>   10.0122    0.0000 </r>
      </set>
      <set comment="kpoint 14">
       <r>   -5.6341    1.0000 </r>
       <r>   -4.0908    1.0000 </r>
       <r>   -3.1800    1.0000 </r>
       <r>   -2.6439    1.0000 </r>
       <r>   -1.4251    1.0000 </r>
       <r>   -0.8711    1.0000 </r>
       <r>    0.2001    1.0000 </r>
       <r>    1.4984    1.0000 </r>
       <r>    1.9397    1.0000 </r>
       <r>    2.6268    1.0000 </r>
       <r>    2.7416    1.0000 </r>
       <r>    2.8496    1.0000 </r>
       <r>    3.0586    1.0000 </r>
       <r>    3.2496    1.0000 </r>
       <r>    4.1888    1.0000 </r>
       <r>    5.0040    1.0000 </r>
       <r>    7.0250    0.0000 </r>
       <r>    7.1821    0.0000 </r>
       <r>    7.8411    0.0000 </r>
       <r>    8.1327    0.0000 </r>
       <r>    8.2845    0.0000 </r>
       <r>    8.7937    0.0000 </r>
       <r>    8.8534    0.0000 </r>
       <r>    9.5704    0.0000 </r>
      </set>
      <set comment="kpoint 15">
       <r>   -5.8956    1.0000 </r>
       <r>   -3.3849    1.0000 </r>
       <r>   -3.3225    1.0000 </r>
       <r>   -2.5557    1.0000 </r>
       <r>   -1.5588    1.0000 </r>
       <r>   -0.7241    1.0000 </r>
       <r>   -0.7000    1.0000 </r>
       <r>    1.7633    1.0000 </r>
       <r>    2.3369    1.0000 </r>
       <r>    2.3724    1.0000 </r>
       <r>    2.9041    1.0000 </r>
       <r>    2.9228    1.0000 </r>
       <r>    3.0717    1.0000 </r>
       <r>    3.6295    1.0000 </r>
       <r>    4.7618    1.0000 </r>
       <r>    5.3646    1.0000 </r>
       <r>    6.5901    0.0000 </r>
       <r>    6.8745    0.0000 </r>
       <r>    6.9459    0.0000 </r>
       <r>    7.7116    0.0000 </r>
       <r>    7.7892    0.0000 </r>
       <r>    8.2714    0.0000 </r>
       <r>    8.5463    0.0000 </r>
       <r>    8.6265    0.0000 </r>
      </set>
      <set comment="kpoint 16">
       <r>   -6.0271    1.0000 </r>
       <r>   -3.4327    1.0000 </r>
       <r>   -2.6575    1.0000 </r>
       <r>   -2.4113    1.0000 </r>
       <r>   -1.7387    1.0000 </r>
       <r>   -1.5051    1.0000 </r>
       <r>   -0.6438    1.0000 </r>
       <r>    2.1650    1.0000 </r>
       <r>    2.2761    1.0000 </r>
       <r>    2.6795    1.0000 </r>
       <r>    2.7466    1.0000 </r>
       <r>    2.7866    1.0000 </r>
       <r>    3.0046    1.0000 </r>
       <r>    4.3682    1.0000 </r>
       <r>    5.1347    1.0000 </r>
       <r>    5.2296    1.0000 </r>
       <r>    6.3845    0.0000 </r>
       <r>    6.6849    0.0000 </r>
       <r>    6.8720    0.0000 </r>
       <r>    7.0740    0.0000 </r>
       <r>    7.4365    0.0000 </r>
       <r>    7.6705    0.0000 </r>
       <r>    8.0321    0.0000 </r>
       <r>    8.5946    0.0000 </r>
      </set>
      <set comment="kpoint 17">
       <r>   -5.7635    1.0000 </r>
       <r>   -4.1851    1.0000 </r>
       <r>   -2.4896    1.0000 </r>
       <r>   -2.4489    1.0000 </r>
       <r>   -1.6061    1.0000 </r>
       <r>   -1.5690    1.0000 </r>
       <r>    0.4057    1.0000 </r>
       <r>    1.8203    1.0000 </r>
       <r>    1.8571    1.0000 </r>
       <r>    2.4291    1.0000 </r>
       <r>    2.4784    1.0000 </r>
       <r>    3.0340    1.0000 </r>
       <r>    3.1853    1.0000 </r>
       <r>    3.4512    1.0000 </r>
       <r>    4.5580    1.0000 </r>
       <r>    4.7030    1.0000 </r>
       <r>    6.5005    0.0000 </r>
       <r>    7.4911    0.0000 </r>
       <r>    7.6518    0.0000 </r>
       <r>    7.7587    0.0000 </r>
       <r>    7.8158    0.0000 </r>
       <r>    8.6513    0.0000 </r>
       <r>    8.6832    0.0000 </r>
       <r>    9.3405    0.0000 </r>
      </set>
      <set comment="kpoint 18">
       <r>   -5.6339    1.0000 </r>
       <r>   -4.0850    1.0000 </r>
       <r>   -3.2112    1.0000 </r>
       <r>   -2.6034    1.0000 </r>
       <r>   -1.4917    1.0000 </r>
       <r>   -0.8192    1.0000 </r>
       <r>    0.2401    1.0000 </r>
       <r>    1.4771    1.0000 </r>
       <r>    1.9689    1.0000 </r>
       <r>    2.6089    1.0000 </r>
       <r>    2.6964    1.0000 </r>
       <r>    2.8196    1.0000 </r>
       <r>    3.0866    1.0000 </r>
       <r>    3.1900    1.0000 </r>
       <r>    4.1789    1.0000 </r>
       <r>    5.1025    1.0000 </r>
       <r>    7.0598    0.0000 </r>
       <r>    7.1876    0.0000 </r>
       <r>    7.8361    0.0000 </r>
       <r>    8.1078    0.0000 </r>
       <r>    8.2813    0.0000 </r>
       <r>    8.8483    0.0000 </r>
       <r>    8.8755    0.0000 </r>
       <r>    9.5574    0.0000 </r>
      </set>
      <set comment="kpoint 19">
       <r>   -5.3779    1.0000 </r>
       <r>   -3.9291    1.0000 </r>
       <r>   -3.8542    1.0000 </r>
       <r>   -2.8887    1.0000 </r>
       <r>   -1.2529    1.0000 </r>
       <r>   -0.1321    1.0000 </r>
       <r>   -0.0268    1.0000 </r>
       <r>    1.3642    1.0000 </r>
       <r>    1.9507    1.0000 </r>
       <r>    2.2181    1.0000 </r>
       <r>    2.2620    1.0000 </r>
       <r>    3.1437    1.0000 </r>
       <r>    3.2794    1.0000 </r>
       <r>    3.5084    1.0000 </r>
       <r>    3.6452    1.0000 </r>
       <r>    5.1759    1.0000 </r>
       <r>    7.1263    0.0000 </r>
       <r>    8.0083    0.0000 </r>
       <r>    8.0760    0.0000 </r>
       <r>    8.4612    0.0000 </r>
       <r>    8.9688    0.0000 </r>
       <r>    9.2188    0.0000 </r>
       <r>    9.3062    0.0000 </r>
       <r>    9.4301    0.0000 </r>
      </set>
      <set comment="kpoint 20">
       <r>   -5.0055    1.0000 </r>
       <r>   -4.4900    1.0000 </r>
       <r>   -3.6121    1.0000 </r>
       <r>   -3.2291    1.0000 </r>
       <r>   -0.9250    1.0000 </r>
       <r>   -0.4613    1.0000 </r>
       <r>    0.6171    1.0000 </r>
       <r>    1.2576    1.0000 </r>
       <r>    1.4907    1.0000 </r>
       <r>    1.8017    1.0000 </r>
       <r>    2.5788    1.0000 </r>
       <r>    3.0065    1.0000 </r>
       <r>    3.3915    1.0000 </r>
       <r>    3.5749    1.0000 </r>
       <r>    3.9521    1.0000 </r>
       <r>    4.7263    1.0000 </r>
       <r>    7.7263    0.0000 </r>
       <r>    8.3418    0.0000 </r>
       <r>    8.5809    0.0000 </r>
       <r>    8.7504    0.0000 </r>
       <r>    8.9359    0.0000 </r>
       <r>    9.2515    0.0000 </r>
       <r>    9.3561    0.0000 </r>
       <r>    9.8676    0.0000 </r>
      </set>
      <set comment="kpoint 21">
       <r>   -5.0106    1.0000 </r>
       <r>   -4.4830    1.0000 </r>
       <r>   -3.5892    1.0000 </r>
       <r>   -3.2619    1.0000 </r>
       <r>   -0.8424    1.0000 </r>
       <r>   -0.5369    1.0000 </r>
       <r>    0.5652    1.0000 </r>
       <r>    1.2940    1.0000 </r>
       <r>    1.5056    1.0000 </r>
       <r>    1.8038    1.0000 </r>
       <r>    2.5606    1.0000 </r>
       <r>    3.0331    1.0000 </r>
       <r>    3.4408    1.0000 </r>
       <r>    3.5314    1.0000 </r>
       <r>    4.0151    1.0000 </r>
       <r>    4.6441    1.0000 </r>
       <r>    7.6756    0.0000 </r>
       <r>    8.3167    0.0000 </r>
       <r>    8.6048    0.0000 </r>
       <r>    8.8138    0.0000 </r>
       <r>    8.8684    0.0000 </r>
       <r>    9.3012    0.0000 </r>
       <r>    9.4120    0.0000 </r>
       <r>    9.8613    0.0000 </r>
      </set>
      <set comment="kpoint 22">
       <r>   -5.3815    1.0000 </r>
       <r>   -3.9096    1.0000 </r>
       <r>   -3.8496    1.0000 </r>
       <r>   -2.9299    1.0000 </r>
       <r>   -1.1707    1.0000 </r>
       <r>   -0.1539    1.0000 </r>
       <r>   -0.1200    1.0000 </r>
       <r>    1.3696    1.0000 </r>
       <r>    1.9897    1.0000 </r>
       <r>    2.1948    1.0000 </r>
       <r>    2.2831    1.0000 </r>
       <r>    3.2289    1.0000 </r>
       <r>    3.3277    1.0000 </r>
       <r>    3.4719    1.0000 </r>
       <r>    3.6438    1.0000 </r>
       <r>    5.0787    1.0000 </r>
       <r>    7.0745    0.0000 </r>
       <r>    8.0241    0.0000 </r>
       <r>    8.0760    0.0000 </r>
       <r>    8.4368    0.0000 </r>
       <r>    9.0350    0.0000 </r>
       <r>    9.1431    0.0000 </r>
       <r>    9.2763    0.0000 </r>
       <r>    9.4425    0.0000 </r>
      </set>
      <set comment="kpoint 23">
       <r>   -5.6360    1.0000 </r>
       <r>   -4.0751    1.0000 </r>
       <r>   -3.2080    1.0000 </r>
       <r>   -2.6327    1.0000 </r>
       <r>   -1.4304    1.0000 </r>
       <r>   -0.8551    1.0000 </r>
       <r>    0.1913    1.0000 </r>
       <r>    1.4931    1.0000 </r>
       <r>    1.9603    1.0000 </r>
       <r>    2.5878    1.0000 </r>
       <r>    2.7488    1.0000 </r>
       <r>    2.8686    1.0000 </r>
       <r>    3.0487    1.0000 </r>
       <r>    3.2591    1.0000 </r>
       <r>    4.1905    1.0000 </r>
       <r>    5.0010    1.0000 </r>
       <r>    7.0680    0.0000 </r>
       <r>    7.1442    0.0000 </r>
       <r>    7.8486    0.0000 </r>
       <r>    8.0616    0.0000 </r>
       <r>    8.3093    0.0000 </r>
       <r>    8.8138    0.0000 </r>
       <r>    8.8835    0.0000 </r>
       <r>    9.5443    0.0000 </r>
      </set>
      <set comment="kpoint 24">
       <r>   -5.7642    1.0000 </r>
       <r>   -4.1819    1.0000 </r>
       <r>   -2.5738    1.0000 </r>
       <r>   -2.3432    1.0000 </r>
       <r>   -1.6940    1.0000 </r>
       <r>   -1.5034    1.0000 </r>
       <r>    0.3882    1.0000 </r>
       <r>    1.8054    1.0000 </r>
       <r>    1.8988    1.0000 </r>
       <r>    2.3977    1.0000 </r>
       <r>    2.4855    1.0000 </r>
       <r>    3.0041    1.0000 </r>
       <r>    3.2264    1.0000 </r>
       <r>    3.5074    1.0000 </r>
       <r>    4.5809    1.0000 </r>
       <r>    4.6215    1.0000 </r>
       <r>    6.5089    0.0000 </r>
       <r>    7.4753    0.0000 </r>
       <r>    7.6285    0.0000 </r>
       <r>    7.6917    0.0000 </r>
       <r>    7.8909    0.0000 </r>
       <r>    8.5625    0.0000 </r>
       <r>    8.7943    0.0000 </r>
       <r>    9.3411    0.0000 </r>
      </set>
      <set comment="kpoint 25">
       <r>   -5.3844    1.0000 </r>
       <r>   -4.8089    1.0000 </r>
       <r>   -2.4294    1.0000 </r>
       <r>   -2.3828    1.0000 </r>
       <r>   -1.6031    1.0000 </r>
       <r>   -1.5561    1.0000 </r>
       <r>    1.4253    1.0000 </r>
       <r>    1.6432    1.0000 </r>
       <r>    1.6790    1.0000 </r>
       <r>    2.2084    1.0000 </r>
       <r>    2.2513    1.0000 </r>
       <r>    2.4693    1.0000 </r>
       <r>    3.4582    1.0000 </r>
       <r>    3.4956    1.0000 </r>
       <r>    4.0518    1.0000 </r>
       <r>    4.0781    1.0000 </r>
       <r>    6.7545    0.0000 </r>
       <r>    7.1465    0.0000 </r>
       <r>    8.3970    0.0000 </r>
       <r>    8.9514    0.0000 </r>
       <r>    8.9900    0.0000 </r>
       <r>    9.2608    0.0000 </r>
       <r>    9.8619    0.0000 </r>
       <r>    9.9163    0.0000 </r>
      </set>
      <set comment="kpoint 26">
       <r>   -5.2598    1.0000 </r>
       <r>   -4.6946    1.0000 </r>
       <r>   -3.0227    1.0000 </r>
       <r>   -2.7488    1.0000 </r>
       <r>   -1.3134    1.0000 </r>
       <r>   -1.0175    1.0000 </r>
       <r>    1.1123    1.0000 </r>
       <r>    1.4674    1.0000 </r>
       <r>    1.6469    1.0000 </r>
       <r>    1.9359    1.0000 </r>
       <r>    2.6707    1.0000 </r>
       <r>    2.8733    1.0000 </r>
       <r>    3.0903    1.0000 </r>
       <r>    3.5310    1.0000 </r>
       <r>    3.7788    1.0000 </r>
       <r>    4.4434    1.0000 </r>
       <r>    7.3446    0.0000 </r>
       <r>    7.7558    0.0000 </r>
       <r>    8.2089    0.0000 </r>
       <r>    8.8932    0.0000 </r>
       <r>    9.0702    0.0000 </r>
       <r>    9.4080    0.0000 </r>
       <r>    9.5088    0.0000 </r>
       <r>   10.0509    0.0000 </r>
      </set>
      <set comment="kpoint 27">
       <r>   -5.0150    1.0000 </r>
       <r>   -4.4692    1.0000 </r>
       <r>   -3.6285    1.0000 </r>
       <r>   -3.2245    1.0000 </r>
       <r>   -0.9265    1.0000 </r>
       <r>   -0.4697    1.0000 </r>
       <r>    0.6272    1.0000 </r>
       <r>    1.2690    1.0000 </r>
       <r>    1.4916    1.0000 </r>
       <r>    1.8042    1.0000 </r>
       <r>    2.5580    1.0000 </r>
       <r>    3.0255    1.0000 </r>
       <r>    3.3742    1.0000 </r>
       <r>    3.5808    1.0000 </r>
       <r>    3.9463    1.0000 </r>
       <r>    4.7302    1.0000 </r>
       <r>    7.7324    0.0000 </r>
       <r>    8.2986    0.0000 </r>
       <r>    8.6162    0.0000 </r>
       <r>    8.7618    0.0000 </r>
       <r>    8.8913    0.0000 </r>
       <r>    9.2814    0.0000 </r>
       <r>    9.3496    0.0000 </r>
       <r>    9.8961    0.0000 </r>
      </set>
      <set comment="kpoint 28">
       <r>   -4.6637    1.0000 </r>
       <r>   -4.1920    1.0000 </r>
       <r>   -4.1223    1.0000 </r>
       <r>   -3.6938    1.0000 </r>
       <r>   -0.4820    1.0000 </r>
       <r>    0.0432    1.0000 </r>
       <r>    0.1485    1.0000 </r>
       <r>    0.6398    1.0000 </r>
       <r>    1.7101    1.0000 </r>
       <r>    2.0609    1.0000 </r>
       <r>    2.1041    1.0000 </r>
       <r>    2.5245    1.0000 </r>
       <r>    3.9970    1.0000 </r>
       <r>    4.0747    1.0000 </r>
       <r>    4.1703    1.0000 </r>
       <r>    4.6758    1.0000 </r>
       <r>    7.7429    0.0000 </r>
       <r>    8.2717    0.0000 </r>
       <r>    8.3223    0.0000 </r>
       <r>    8.3502    0.0000 </r>
       <r>    9.4610    0.0000 </r>
       <r>    9.5469    0.0000 </r>
       <r>    9.7755    0.0000 </r>
       <r>   10.0263    0.0000 </r>
      </set>
      <set comment="kpoint 29">
       <r>   -4.6694    1.0000 </r>
       <r>   -4.1787    1.0000 </r>
       <r>   -4.1152    1.0000 </r>
       <r>   -3.7122    1.0000 </r>
       <r>   -0.4006    1.0000 </r>
       <r>    0.0088    1.0000 </r>
       <r>    0.0530    1.0000 </r>
       <r>    0.6885    1.0000 </r>
       <r>    1.6929    1.0000 </r>
       <r>    2.0572    1.0000 </r>
       <r>    2.1250    1.0000 </r>
       <r>    2.5250    1.0000 </r>
       <r>    3.9765    1.0000 </r>
       <r>    4.1217    1.0000 </r>
       <r>    4.2209    1.0000 </r>
       <r>    4.6003    1.0000 </r>
       <r>    7.6899    0.0000 </r>
       <r>    8.2690    0.0000 </r>
       <r>    8.3140    0.0000 </r>
       <r>    8.4107    0.0000 </r>
       <r>    9.4964    0.0000 </r>
       <r>    9.5665    0.0000 </r>
       <r>    9.8154    0.0000 </r>
       <r>    9.9630    0.0000 </r>
      </set>
      <set comment="kpoint 30">
       <r>   -5.0193    1.0000 </r>
       <r>   -4.4590    1.0000 </r>
       <r>   -3.6234    1.0000 </r>
       <r>   -3.2460    1.0000 </r>
       <r>   -0.8409    1.0000 </r>
       <r>   -0.5236    1.0000 </r>
       <r>    0.5550    1.0000 </r>
       <r>    1.2991    1.0000 </r>
       <r>    1.4948    1.0000 </r>
       <r>    1.7939    1.0000 </r>
       <r>    2.5779    1.0000 </r>
       <r>    3.0314    1.0000 </r>
       <r>    3.4202    1.0000 </r>
       <r>    3.5434    1.0000 </r>
       <r>    4.0228    1.0000 </r>
       <r>    4.6454    1.0000 </r>
       <r>    7.6761    0.0000 </r>
       <r>    8.3322    0.0000 </r>
       <r>    8.5771    0.0000 </r>
       <r>    8.8116    0.0000 </r>
       <r>    8.9037    0.0000 </r>
       <r>    9.2438    0.0000 </r>
       <r>    9.4228    0.0000 </r>
       <r>    9.8542    0.0000 </r>
      </set>
      <set comment="kpoint 31">
       <r>   -5.2623    1.0000 </r>
       <r>   -4.6888    1.0000 </r>
       <r>   -3.0302    1.0000 </r>
       <r>   -2.7569    1.0000 </r>
       <r>   -1.2382    1.0000 </r>
       <r>   -1.0688    1.0000 </r>
       <r>    1.0604    1.0000 </r>
       <r>    1.4547    1.0000 </r>
       <r>    1.6319    1.0000 </r>
       <r>    1.9846    1.0000 </r>
       <r>    2.7187    1.0000 </r>
       <r>    2.8335    1.0000 </r>
       <r>    3.1069    1.0000 </r>
       <r>    3.5441    1.0000 </r>
       <r>    3.8403    1.0000 </r>
       <r>    4.3624    1.0000 </r>
       <r>    7.3680    0.0000 </r>
       <r>    7.7460    0.0000 </r>
       <r>    8.1523    0.0000 </r>
       <r>    8.8793    0.0000 </r>
       <r>    9.0897    0.0000 </r>
       <r>    9.4294    0.0000 </r>
       <r>    9.5053    0.0000 </r>
       <r>   10.0083    0.0000 </r>
      </set>
      <set comment="kpoint 32">
       <r>   -5.3852    1.0000 </r>
       <r>   -4.8070    1.0000 </r>
       <r>   -2.5065    1.0000 </r>
       <r>   -2.2945    1.0000 </r>
       <r>   -1.6511    1.0000 </r>
       <r>   -1.5167    1.0000 </r>
       <r>    1.4090    1.0000 </r>
       <r>    1.6307    1.0000 </r>
       <r>    1.6775    1.0000 </r>
       <r>    2.1989    1.0000 </r>
       <r>    2.2636    1.0000 </r>
       <r>    2.4961    1.0000 </r>
       <r>    3.4151    1.0000 </r>
       <r>    3.5844    1.0000 </r>
       <r>    4.0015    1.0000 </r>
       <r>    4.0799    1.0000 </r>
       <r>    6.7618    0.0000 </r>
       <r>    7.1449    0.0000 </r>
       <r>    8.3884    0.0000 </r>
       <r>    8.8402    0.0000 </r>
       <r>    9.0751    0.0000 </r>
       <r>    9.2682    0.0000 </r>
       <r>    9.7946    0.0000 </r>
       <r>   10.0166    0.0000 </r>
      </set>
      <set comment="kpoint 33">
       <r>   -5.3855    1.0000 </r>
       <r>   -4.8073    1.0000 </r>
       <r>   -2.4278    1.0000 </r>
       <r>   -2.3818    1.0000 </r>
       <r>   -1.6062    1.0000 </r>
       <r>   -1.5581    1.0000 </r>
       <r>    1.4147    1.0000 </r>
       <r>    1.6458    1.0000 </r>
       <r>    1.6720    1.0000 </r>
       <r>    2.2134    1.0000 </r>
       <r>    2.2434    1.0000 </r>
       <r>    2.5021    1.0000 </r>
       <r>    3.4846    1.0000 </r>
       <r>    3.4984    1.0000 </r>
       <r>    4.0084    1.0000 </r>
       <r>    4.0762    1.0000 </r>
       <r>    6.7556    0.0000 </r>
       <r>    7.1450    0.0000 </r>
       <r>    8.3968    0.0000 </r>
       <r>    8.9286    0.0000 </r>
       <r>    8.9624    0.0000 </r>
       <r>    9.2791    0.0000 </r>
       <r>    9.8926    0.0000 </r>
       <r>    9.9417    0.0000 </r>
      </set>
      <set comment="kpoint 34">
       <r>   -5.2636    1.0000 </r>
       <r>   -4.6890    1.0000 </r>
       <r>   -2.9967    1.0000 </r>
       <r>   -2.7846    1.0000 </r>
       <r>   -1.2496    1.0000 </r>
       <r>   -1.0775    1.0000 </r>
       <r>    1.0656    1.0000 </r>
       <r>    1.4803    1.0000 </r>
       <r>    1.6319    1.0000 </r>
       <r>    2.0051    1.0000 </r>
       <r>    2.7144    1.0000 </r>
       <r>    2.8221    1.0000 </r>
       <r>    3.1069    1.0000 </r>
       <r>    3.5284    1.0000 </r>
       <r>    3.8285    1.0000 </r>
       <r>    4.3661    1.0000 </r>
       <r>    7.3384    0.0000 </r>
       <r>    7.7592    0.0000 </r>
       <r>    8.1578    0.0000 </r>
       <r>    8.9012    0.0000 </r>
       <r>    9.0682    0.0000 </r>
       <r>    9.4382    0.0000 </r>
       <r>    9.5176    0.0000 </r>
       <r>   10.0276    0.0000 </r>
      </set>
      <set comment="kpoint 35">
       <r>   -5.0218    1.0000 </r>
       <r>   -4.4589    1.0000 </r>
       <r>   -3.6088    1.0000 </r>
       <r>   -3.2540    1.0000 </r>
       <r>   -0.8571    1.0000 </r>
       <r>   -0.5356    1.0000 </r>
       <r>    0.5631    1.0000 </r>
       <r>    1.3317    1.0000 </r>
       <r>    1.5056    1.0000 </r>
       <r>    1.8017    1.0000 </r>
       <r>    2.5585    1.0000 </r>
       <r>    3.0301    1.0000 </r>
       <r>    3.4117    1.0000 </r>
       <r>    3.5374    1.0000 </r>
       <r>    4.0158    1.0000 </r>
       <r>    4.6489    1.0000 </r>
       <r>    7.6793    0.0000 </r>
       <r>    8.2868    0.0000 </r>
       <r>    8.6203    0.0000 </r>
       <r>    8.8049    0.0000 </r>
       <r>    8.8734    0.0000 </r>
       <r>    9.2498    0.0000 </r>
       <r>    9.4249    0.0000 </r>
       <r>    9.8836    0.0000 </r>
      </set>
      <set comment="kpoint 36">
       <r>   -4.6733    1.0000 </r>
       <r>   -4.1700    1.0000 </r>
       <r>   -4.1164    1.0000 </r>
       <r>   -3.7145    1.0000 </r>
       <r>   -0.4136    1.0000 </r>
       <r>    0.0081    1.0000 </r>
       <r>    0.0472    1.0000 </r>
       <r>    0.7100    1.0000 </r>
       <r>    1.7165    1.0000 </r>
       <r>    2.0550    1.0000 </r>
       <r>    2.1061    1.0000 </r>
       <r>    2.5228    1.0000 </r>
       <r>    3.9750    1.0000 </r>
       <r>    4.1143    1.0000 </r>
       <r>    4.2196    1.0000 </r>
       <r>    4.6056    1.0000 </r>
       <r>    7.6900    0.0000 </r>
       <r>    8.2702    0.0000 </r>
       <r>    8.3242    0.0000 </r>
       <r>    8.4050    0.0000 </r>
       <r>    9.4470    0.0000 </r>
       <r>    9.5494    0.0000 </r>
       <r>    9.8135    0.0000 </r>
       <r>    9.9974    0.0000 </r>
      </set>
      <set comment="kpoint 37">
       <r>   -4.6589    1.0000 </r>
       <r>   -4.1995    1.0000 </r>
       <r>   -4.1235    1.0000 </r>
       <r>   -3.6916    1.0000 </r>
       <r>   -0.4666    1.0000 </r>
       <r>    0.0457    1.0000 </r>
       <r>    0.1537    1.0000 </r>
       <r>    0.6169    1.0000 </r>
       <r>    1.6847    1.0000 </r>
       <r>    2.0602    1.0000 </r>
       <r>    2.1261    1.0000 </r>
       <r>    2.5244    1.0000 </r>
       <r>    4.0018    1.0000 </r>
       <r>    4.0747    1.0000 </r>
       <r>    4.1769    1.0000 </r>
       <r>    4.6710    1.0000 </r>
       <r>    7.7425    0.0000 </r>
       <r>    8.2667    0.0000 </r>
       <r>    8.3169    0.0000 </r>
       <r>    8.3522    0.0000 </r>
       <r>    9.4986    0.0000 </r>
       <r>    9.5962    0.0000 </r>
       <r>    9.7718    0.0000 </r>
       <r>   10.0031    0.0000 </r>
      </set>
      <set comment="kpoint 38">
       <r>   -5.0120    1.0000 </r>
       <r>   -4.4701    1.0000 </r>
       <r>   -3.6414    1.0000 </r>
       <r>   -3.2181    1.0000 </r>
       <r>   -0.9095    1.0000 </r>
       <r>   -0.4575    1.0000 </r>
       <r>    0.6220    1.0000 </r>
       <r>    1.2375    1.0000 </r>
       <r>    1.4767    1.0000 </r>
       <r>    1.7956    1.0000 </r>
       <r>    2.5760    1.0000 </r>
       <r>    3.0280    1.0000 </r>
       <r>    3.3800    1.0000 </r>
       <r>    3.5870    1.0000 </r>
       <r>    3.9547    1.0000 </r>
       <r>    4.7275    1.0000 </r>
       <r>    7.7292    0.0000 </r>
       <r>    8.3426    0.0000 </r>
       <r>    8.5747    0.0000 </r>
       <r>    8.7592    0.0000 </r>
       <r>    8.9212    0.0000 </r>
       <r>    9.3015    0.0000 </r>
       <r>    9.3567    0.0000 </r>
       <r>    9.8498    0.0000 </r>
[...]
       <r>   -4.0275    1.0000 </r>
       <r>   -3.7213    1.0000 </r>
       <r>   -0.4449    1.0000 </r>
       <r>   -0.0445    1.0000 </r>
       <r>    0.2277    1.0000 </r>
       <r>    0.6251    1.0000 </r>
       <r>    1.7022    1.0000 </r>
       <r>    1.9964    1.0000 </r>
       <r>    2.1745    1.0000 </r>
       <r>    2.5290    1.0000 </r>
       <r>    3.9119    1.0000 </r>
       <r>    4.0452    1.0000 </r>
       <r>    4.2964    1.0000 </r>
       <r>    4.6493    1.0000 </r>
       <r>    7.7311    0.0000 </r>
       <r>    8.1691    0.0000 </r>
       <r>    8.3090    0.0000 </r>
       <r>    8.4856    0.0000 </r>
       <r>    9.4349    0.0000 </r>
       <r>    9.6672    0.0000 </r>
       <r>    9.7846    0.0000 </r>
       <r>   10.0120    0.0000 </r>
      </set>
      <set comment="kpoint 254">
       <r>   -4.9948    1.0000 </r>
       <r>   -4.5079    1.0000 </r>
       <r>   -3.5901    1.0000 </r>
       <r>   -3.2529    1.0000 </r>
       <r>   -0.8880    1.0000 </r>
       <r>   -0.4783    1.0000 </r>
       <r>    0.6285    1.0000 </r>
       <r>    1.2101    1.0000 </r>
       <r>    1.5252    1.0000 </r>
       <r>    1.7776    1.0000 </r>
       <r>    2.5795    1.0000 </r>
       <r>    3.0363    1.0000 </r>
       <r>    3.3417    1.0000 </r>
       <r>    3.5738    1.0000 </r>
       <r>    4.0060    1.0000 </r>
       <r>    4.7062    1.0000 </r>
       <r>    7.7051    0.0000 </r>
       <r>    8.3463    0.0000 </r>
       <r>    8.6158    0.0000 </r>
       <r>    8.7346    0.0000 </r>
       <r>    8.9171    0.0000 </r>
       <r>    9.2930    0.0000 </r>
       <r>    9.4234    0.0000 </r>
       <r>    9.8277    0.0000 </r>
      </set>
      <set comment="kpoint 255">
       <r>   -5.2410    1.0000 </r>
       <r>   -4.7256    1.0000 </r>
       <r>   -2.9945    1.0000 </r>
       <r>   -2.7708    1.0000 </r>
       <r>   -1.2797    1.0000 </r>
       <r>   -1.0259    1.0000 </r>
       <r>    1.1121    1.0000 </r>
       <r>    1.4122    1.0000 </r>
       <r>    1.6212    1.0000 </r>
       <r>    1.9710    1.0000 </r>
       <r>    2.6680    1.0000 </r>
       <r>    2.8514    1.0000 </r>
       <r>    3.1087    1.0000 </r>
       <r>    3.5966    1.0000 </r>
       <r>    3.7709    1.0000 </r>
       <r>    4.4208    1.0000 </r>
       <r>    7.3800    0.0000 </r>
       <r>    7.7141    0.0000 </r>
       <r>    8.2418    0.0000 </r>
       <r>    8.8791    0.0000 </r>
       <r>    9.1176    0.0000 </r>
       <r>    9.4034    0.0000 </r>
       <r>    9.4350    0.0000 </r>
       <r>   10.0260    0.0000 </r>
      </set>
      <set comment="kpoint 256">
       <r>   -5.3668    1.0000 </r>
       <r>   -4.8379    1.0000 </r>
       <r>   -2.4203    1.0000 </r>
       <r>   -2.3602    1.0000 </r>
       <r>   -1.6020    1.0000 </r>
       <r>   -1.5685    1.0000 </r>
       <r>    1.4163    1.0000 </r>
       <r>    1.6054    1.0000 </r>
       <r>    1.6722    1.0000 </r>
       <r>    2.2105    1.0000 </r>
       <r>    2.2478    1.0000 </r>
       <r>    2.4914    1.0000 </r>
       <r>    3.4330    1.0000 </r>
       <r>    3.6050    1.0000 </r>
       <r>    3.9989    1.0000 </r>
       <r>    4.0742    1.0000 </r>
       <r>    6.7730    0.0000 </r>
       <r>    7.1360    0.0000 </r>
       <r>    8.3695    0.0000 </r>
       <r>    8.9570    0.0000 </r>
       <r>    9.0372    0.0000 </r>
       <r>    9.2560    0.0000 </r>
       <r>    9.8115    0.0000 </r>
       <r>    9.8999    0.0000 </r>
      </set>
     </set>
    </set>
   </array>
  </eigenvalues>
  <separator name="orbital magnetization" >
   <v name="MAGDIPOLOUT">      0.00000000      0.00000000      0.00000000</v>
  </separator>
  <dos>
   <i name="efermi">      5.67207873 </i>
   <total>
    <array>
     <dimension dim="1">gridpoints</dimension>
     <dimension dim="2">spin</dimension>
     <field>energy</field>
     <field>total</field>
     <field>integrated</field>
     <set>
      <set comment="spin 1">
       <r>    -6.9769     0.0000     0.0000 </r>
       <r>    -6.9169     0.0000     0.0000 </r>
       <r>    -6.8570     0.0000     0.0000 </r>
       <r>    -6.7971     0.0000     0.0000 </r>
       <r>    -6.7372     0.0000     0.0000 </r>
       <r>    -6.6773     0.0000     0.0000 </r>
       <r>    -6.6174     0.0000     0.0000 </r>
       <r>    -6.5575     0.0000     0.0000 </r>
       <r>    -6.4976     0.0000     0.0000 </r>
       <r>    -6.4376     0.0000     0.0000 </r>
       <r>    -6.3777     0.0000     0.0000 </r>
       <r>    -6.3178     0.0000     0.0000 </r>
       <r>    -6.2579     0.0000     0.0000 </r>
       <r>    -6.1980     0.0000     0.0000 </r>
       <r>    -6.1381     0.5193     0.0311 </r>
       <r>    -6.0782     0.0000     0.0313 </r>
       <r>    -6.0183     1.6320     0.1290 </r>
       <r>    -5.9583    -0.0672     0.1250 </r>
       <r>    -5.8984     0.2327     0.1389 </r>
       <r>    -5.8385     1.3320     0.2187 </r>
       <r>    -5.7786    -0.0156     0.2178 </r>
       <r>    -5.7187     2.1020     0.3437 </r>
       <r>    -5.6588     0.0060     0.3441 </r>
       <r>    -5.5989     3.1234     0.5312 </r>
       <r>    -5.5390     0.0003     0.5313 </r>
       <r>    -5.4790     1.5628     0.6249 </r>
       <r>    -5.4191     0.0000     0.6250 </r>
       <r>    -5.3592     3.1611     0.8144 </r>
       <r>    -5.2993    -0.0353     0.8125 </r>
       <r>    -5.2394     4.6370     1.0903 </r>
       <r>    -5.1795     0.0527     1.0938 </r>
       <r>    -5.1196     1.4994     1.1836 </r>
       <r>    -5.0597     0.0640     1.1875 </r>
       <r>    -4.9998     3.1732     1.3776 </r>
       <r>    -4.9398     0.4770     1.4063 </r>
       <r>    -4.8799     3.0852     1.5911 </r>
       <r>    -4.8200     1.0795     1.6559 </r>
       <r>    -4.7601     0.5276     1.6875 </r>
       <r>    -4.7002     2.1685     1.8174 </r>
       <r>    -4.6403     4.0212     2.0585 </r>
       <r>    -4.5804     1.5210     2.1498 </r>
       <r>    -4.5205     1.6639     2.2495 </r>
       <r>    -4.4605     2.9059     2.4237 </r>
       <r>    -4.4006     1.8169     2.5326 </r>
       <r>    -4.3407     3.1057     2.7186 </r>
       <r>    -4.2808     0.2593     2.7343 </r>
       <r>    -4.2209     0.8883     2.7875 </r>
       <r>    -4.1610     4.4266     3.0528 </r>
       <r>    -4.1011     2.9582     3.2302 </r>
       <r>    -4.0412     4.3512     3.4910 </r>
       <r>    -3.9812     3.4338     3.6968 </r>
       <r>    -3.9213     2.7882     3.8639 </r>
       <r>    -3.8614     2.4993     4.0137 </r>
       <r>    -3.8015     2.3831     4.1565 </r>
       <r>    -3.7416     2.5972     4.3121 </r>
       <r>    -3.6817     5.0294     4.6136 </r>
       <r>    -3.6218     2.7123     4.7762 </r>
       <r>    -3.5619     6.4850     5.1648 </r>
       <r>    -3.5020     0.3830     5.1879 </r>
       <r>    -3.4420     1.2200     5.2610 </r>
       <r>    -3.3821     1.7521     5.3660 </r>
       <r>    -3.3222     4.4228     5.6310 </r>
       <r>    -3.2623     1.5205     5.7222 </r>
       <r>    -3.2024     7.4711     6.1698 </r>
       <r>    -3.1425     4.1908     6.4211 </r>
       <r>    -3.0826     1.5427     6.5136 </r>
       <r>    -3.0227     1.6581     6.6129 </r>
       <r>    -2.9627     2.8064     6.7811 </r>
       <r>    -2.9028     1.0909     6.8465 </r>
       <r>    -2.8429     0.4745     6.8750 </r>
       <r>    -2.7830     0.4003     6.8990 </r>
       <r>    -2.7231     2.8152     7.0676 </r>
       <r>    -2.6632     0.2406     7.0821 </r>
       <r>    -2.6033     3.2345     7.2759 </r>
       <r>    -2.5434     3.0957     7.4615 </r>
       <r>    -2.4834     3.3059     7.6596 </r>
       <r>    -2.4235     2.0723     7.7839 </r>
       <r>    -2.3636     2.1298     7.9116 </r>
       <r>    -2.3037     1.2026     7.9836 </r>
       <r>    -2.2438     0.2733     8.0000 </r>
       <r>    -2.1839     0.0000     8.0000 </r>
       <r>    -2.1240     0.0000     8.0000 </r>
       <r>    -2.0641     0.0000     8.0000 </r>
       <r>    -2.0042     0.0000     8.0000 </r>
       <r>    -1.9442     0.0000     8.0000 </r>
       <r>    -1.8843     0.0000     8.0000 </r>
       <r>    -1.8244     0.0000     8.0000 </r>
       <r>    -1.7645     0.1988     8.0119 </r>
       <r>    -1.7046     0.3051     8.0302 </r>
       <r>    -1.6447     1.8591     8.1416 </r>
       <r>    -1.5848     5.2266     8.4548 </r>
       <r>    -1.5249     3.8738     8.6869 </r>
       <r>    -1.4649     2.3238     8.8262 </r>
       <r>    -1.4050     1.8547     8.9374 </r>
       <r>    -1.3451     0.0001     8.9375 </r>
       <r>    -1.2852     1.0588     9.0009 </r>
       <r>    -1.2253     3.2347     9.1948 </r>
       <r>    -1.1654     2.5589     9.3482 </r>
       <r>    -1.1055     4.6775     9.6284 </r>
       <r>    -1.0456     7.4508    10.0749 </r>
       <r>    -0.9856     4.4256    10.3402 </r>
       <r>    -0.9257     2.9694    10.5183 </r>
       <r>    -0.8658     4.9542    10.8152 </r>
       <r>    -0.8059     8.4774    11.3232 </r>
       <r>    -0.7460     2.8782    11.4959 </r>
       <r>    -0.6861     2.1379    11.6241 </r>
       <r>    -0.6262     1.8893    11.7373 </r>
       <r>    -0.5663     0.6405    11.7757 </r>
       <r>    -0.5064     2.0855    11.9006 </r>
       <r>    -0.4464     6.8328    12.3101 </r>
       <r>    -0.3865     3.7081    12.5324 </r>
       <r>    -0.3266     1.0230    12.5938 </r>
       <r>    -0.2667     0.5286    12.6255 </r>
       <r>    -0.2068     0.2610    12.6412 </r>
       <r>    -0.1469     0.5185    12.6722 </r>
       <r>    -0.0870     1.6191    12.7692 </r>
       <r>    -0.0271     1.6793    12.8699 </r>
       <r>     0.0329     1.6931    12.9714 </r>
       <r>     0.0928     3.9103    13.2057 </r>
       <r>     0.1527     3.7759    13.4320 </r>
       <r>     0.2126     1.7531    13.5371 </r>
       <r>     0.2725     1.9864    13.6562 </r>
       <r>     0.3324     0.0002    13.6563 </r>
       <r>     0.3923     0.5033    13.6864 </r>
       <r>     0.4522     1.0615    13.7500 </r>
       <r>     0.5122     0.0000    13.7500 </r>
       <r>     0.5721     0.8769    13.8025 </r>
       <r>     0.6320     2.5018    13.9524 </r>
       <r>     0.6919     3.4737    14.1606 </r>
       <r>     0.7518     2.9242    14.3359 </r>
       <r>     0.8117     0.1306    14.3438 </r>
       <r>     0.8716     0.0000    14.3438 </r>
       <r>     0.9315     0.0000    14.3438 </r>
       <r>     0.9915     0.0000    14.3438 </r>
       <r>     1.0514     0.3414    14.3642 </r>
       <r>     1.1113     2.1694    14.4942 </r>
       <r>     1.1712     0.6187    14.5312 </r>
       <r>     1.2311     0.6114    14.5679 </r>
       <r>     1.2910     1.2742    14.6443 </r>
       <r>     1.3509     2.9320    14.8200 </r>
       <r>     1.4108     3.7482    15.0446 </r>
       <r>     1.4707     4.0567    15.2877 </r>
       <r>     1.5307     5.8493    15.6382 </r>
       <r>     1.5906     0.2948    15.6560 </r>
       <r>     1.6505     3.9198    15.8908 </r>
       <r>     1.7104     3.6505    16.1096 </r>
       <r>     1.7703     3.3972    16.3132 </r>
       <r>     1.8302     6.8000    16.7207 </r>
       <r>     1.8901     5.0917    17.0259 </r>
       <r>     1.9500     2.4941    17.1754 </r>
       <r>     2.0100     7.3625    17.6166 </r>
       <r>     2.0699     4.4485    17.8833 </r>
       <r>     2.1298     2.1552    18.0125 </r>
       <r>     2.1897     3.2183    18.2054 </r>
       <r>     2.2496     5.7668    18.5510 </r>
       <r>     2.3095     5.1425    18.8592 </r>
       <r>     2.3694     2.9281    19.0348 </r>
       <r>     2.4293     3.9941    19.2741 </r>
       <r>     2.4893     3.8028    19.5020 </r>
       <r>     2.5492     4.3363    19.7619 </r>
       <r>     2.6091     5.9051    20.1159 </r>
       <r>     2.6690     3.8048    20.3440 </r>
       <r>     2.7289     8.2778    20.8400 </r>
       <r>     2.7888     5.2438    21.1544 </r>
       <r>     2.8487     8.0112    21.6345 </r>
       <r>     2.9086     4.9495    21.9312 </r>
       <r>     2.9685     2.2020    22.0632 </r>
       <r>     3.0285     4.4238    22.3283 </r>
       <r>     3.0884     9.9366    22.9238 </r>
       <r>     3.1483     7.0012    23.3434 </r>
       <r>     3.2082     4.2278    23.5969 </r>
       <r>     3.2681     8.6409    24.1147 </r>
       <r>     3.3280     2.4439    24.2613 </r>
       <r>     3.3879     2.2347    24.3952 </r>
       <r>     3.4478     5.4483    24.7217 </r>
       <r>     3.5078     7.4826    25.1702 </r>
       <r>     3.5677     8.9730    25.7080 </r>
       <r>     3.6276     8.6151    26.2244 </r>
       <r>     3.6875     4.3583    26.4857 </r>
       <r>     3.7474     3.4322    26.6914 </r>
       <r>     3.8073     5.1860    27.0022 </r>
       <r>     3.8672     2.0598    27.1257 </r>
       <r>     3.9271     1.9218    27.2409 </r>
       <r>     3.9871     3.7946    27.4682 </r>
       <r>     4.0470     9.0755    28.0120 </r>
       <r>     4.1069     5.9286    28.3673 </r>
       <r>     4.1668     4.4084    28.6316 </r>
       <r>     4.2267     6.7440    29.0356 </r>
       <r>     4.2866     3.4934    29.2451 </r>
       <r>     4.3465     3.4886    29.4542 </r>
       <r>     4.4064     4.9664    29.7518 </r>
       <r>     4.4663     3.0992    29.9376 </r>
       <r>     4.5263     0.1167    29.9446 </r>
       <r>     4.5862     3.4339    30.1504 </r>
       <r>     4.6461     7.3898    30.5933 </r>
       <r>     4.7060     5.4213    30.9181 </r>
       <r>     4.7659     2.7636    31.0838 </r>
       <r>     4.8258     0.6329    31.1218 </r>
       <r>     4.8857     0.9287    31.1775 </r>
       <r>     4.9456     0.4186    31.2026 </r>
       <r>     5.0056     1.3041    31.2807 </r>
       <r>     5.0655     2.4747    31.4290 </r>
       <r>     5.1254     3.4973    31.6386 </r>
       <r>     5.1853     1.8668    31.7506 </r>
       <r>     5.2452     0.4391    31.7769 </r>
       <r>     5.3051     0.7273    31.8205 </r>
       <r>     5.3650     0.4551    31.8478 </r>
       <r>     5.4249     0.7132    31.8905 </r>
       <r>     5.4849     1.0942    31.9561 </r>
       <r>     5.5448     0.3411    31.9766 </r>
       <r>     5.6047     0.3769    31.9991 </r>
       <r>     5.6646     0.0137    32.0000 </r>
       <r>     5.7245     0.0000    32.0000 </r>
       <r>     5.7844     0.0000    32.0000 </r>
       <r>     5.8443     0.0000    32.0000 </r>
       <r>     5.9042     0.0000    32.0000 </r>
       <r>     5.9641     0.0000    32.0000 </r>
       <r>     6.0241     0.0000    32.0000 </r>
       <r>     6.0840     0.0000    32.0000 </r>
       <r>     6.1439     0.0000    32.0000 </r>
       <r>     6.2038     0.0000    32.0000 </r>
       <r>     6.2637     0.1301    32.0078 </r>
       <r>     6.3236     0.3990    32.0317 </r>
       <r>     6.3835     2.0183    32.1526 </r>
       <r>     6.4434     0.3211    32.1719 </r>
       <r>     6.5034     0.7070    32.2142 </r>
       <r>     6.5633     1.1187    32.2813 </r>
       <r>     6.6232     0.7850    32.3283 </r>
       <r>     6.6831     1.2746    32.4047 </r>
       <r>     6.7430     1.2971    32.4824 </r>
       <r>     6.8029     3.8122    32.7108 </r>
       <r>     6.8628     2.4127    32.8554 </r>
       <r>     6.9227     1.9860    32.9744 </r>
       <r>     6.9827     0.6614    33.0141 </r>
       <r>     7.0426     1.1748    33.0845 </r>
       <r>     7.1025     6.0587    33.4475 </r>
       <r>     7.1624     4.3075    33.7058 </r>
       <r>     7.2223     2.2485    33.8407 </r>
       <r>     7.2822     2.3522    33.9816 </r>
       <r>     7.3421     1.7605    34.0872 </r>
       <r>     7.4020     4.1511    34.3359 </r>
       <r>     7.4620     3.0354    34.5179 </r>
       <r>     7.5219     5.4699    34.8457 </r>
       <r>     7.5818     3.7405    35.0699 </r>
       <r>     7.6417     3.3405    35.2702 </r>
       <r>     7.7016     3.8774    35.5026 </r>
       <r>     7.7615     9.1432    36.0505 </r>
       <r>     7.8214     9.8521    36.6409 </r>
       <r>     7.8813     8.4872    37.1497 </r>
       <r>     7.9412     4.9159    37.4445 </r>
       <r>     8.0012     3.2399    37.6387 </r>
       <r>     8.0611     5.3562    37.9597 </r>
       <r>     8.1210     6.3448    38.3400 </r>
       <r>     8.1809     4.0650    38.5836 </r>
       <r>     8.2408     3.1714    38.7737 </r>
       <r>     8.3007     6.9549    39.1905 </r>
       <r>     8.3606     8.7807    39.7168 </r>
       <r>     8.4205     3.1974    39.9085 </r>
       <r>     8.4805     1.8377    40.0187 </r>
       <r>     8.5404     2.8407    40.1890 </r>
       <r>     8.6003     6.0912    40.5540 </r>
       <r>     8.6602     4.1973    40.8056 </r>
       <r>     8.7201     1.9198    40.9206 </r>
       <r>     8.7800     5.3069    41.2387 </r>
       <r>     8.8399     6.9922    41.6577 </r>
       <r>     8.8998    10.9909    42.3164 </r>
       <r>     8.9598    10.5758    42.9503 </r>
       <r>     9.0197     5.8609    43.3016 </r>
       <r>     9.0796     6.5070    43.6916 </r>
       <r>     9.1395     5.8108    44.0399 </r>
       <r>     9.1994     3.2736    44.2361 </r>
       <r>     9.2593     4.5500    44.5088 </r>
       <r>     9.3192     4.9683    44.8065 </r>
       <r>     9.3791     6.3153    45.1849 </r>
       <r>     9.4390     8.6631    45.7041 </r>
       <r>     9.4990     4.4518    45.9710 </r>
       <r>     9.5589     6.8646    46.3824 </r>
       <r>     9.6188     3.4222    46.5876 </r>
       <r>     9.6787     0.9601    46.6452 </r>
       <r>     9.7386     1.5512    46.7382 </r>
       <r>     9.7985     4.3731    47.0002 </r>
       <r>     9.8584     3.0948    47.1858 </r>
       <r>     9.9183     3.9786    47.4242 </r>
       <r>     9.9783     1.7781    47.5310 </r>
       <r>    10.0382     4.6254    47.8081 </r>
       <r>    10.0981     1.9880    47.9274 </r>
       <r>    10.1580     0.7810    47.9742 </r>
       <r>    10.2179     0.4301    48.0000 </r>
       <r>    10.2778     0.0000    48.0000 </r>
       <r>    10.3377     0.0000    48.0000 </r>
       <r>    10.3976     0.0000    48.0000 </r>
       <r>    10.4576     0.0000    48.0000 </r>
       <r>    10.5175     0.0000    48.0000 </r>
       <r>    10.5774     0.0000    48.0000 </r>
       <r>    10.6373     0.0000    48.0000 </r>
       <r>    10.6972     0.0000    48.0000 </r>
       <r>    10.7571     0.0000    48.0000 </r>
       <r>    10.8170     0.0000    48.0000 </r>
       <r>    10.8769     0.0000    48.0000 </r>
       <r>    10.9368     0.0000    48.0000 </r>
       <r>    10.9968     0.0000    48.0000 </r>
      </set>
     </set>
    </array>
   </total>
  </dos>
 </calculation>
 <structure name="finalpos" >
  <crystal>
   <varray name="basis" >
    <v>       5.46906415       0.00000000       0.00000000 </v>
    <v>       0.00000000       5.46906415       0.00000000 </v>
    <v>       0.00000000       0.00000000       5.46906415 </v>
   </varray>
   <i name="volume">    163.58333295 </i>
   <varray name="rec_basis" >
    <v>       0.18284664       0.00000000       0.00000000 </v>
    <v>       0.00000000       0.18284664       0.00000000 </v>
    <v>       0.00000000       0.00000000       0.18284664 </v>
   </varray>
  </crystal>
  <varray name="positions" >
   <v>       0.15999109       0.00228806       0.09787759 </v>
   <v>       0.39525739       0.24920367       0.34902261 </v>
   <v>       0.63071556       0.49879683       0.08083222 </v>
   <v>       0.89701951       0.75248971       0.33054660 </v>
   <v>       0.65655977       0.99710800       0.59249877 </v>
   <v>       0.89815044       0.25173063       0.84176943 </v>
   <v>       0.14377416       0.51728696       0.59681602 </v>
   <v>       0.40166359       0.76809037       0.83874088 </v>
  </varray>
 </structure>
</modeling>
