<?xml version="1.0" encoding="ISO-8859-1"?>
<modeling>
 <generator>
  <i name="program" type="string">vasp </i>
  <i name="version" type="string">5.4.1  </i>
  <i name="subversion" type="string">24Jun15 (build Jul  8 2015 13:29:37) complex                          parallel </i>
  <i name="platform" type="string">FX10FRT </i>
  <i name="date" type="string">2016 02 29 </i>
  <i name="time" type="string">21:48:27 </i>
 </generator>
 <incar>
  <i type="string" name="PREC">accurate</i>
  <i type="string" name="ALGO"> Normal</i>
  <i type="int" name="ISPIN">     1</i>
  <i type="int" name="IBRION">    -1</i>
  <i name="EDIFF">      0.00010000</i>
  <i type="int" name="NSW">     0</i>
  <i type="int" name="ISIF">     2</i>
  <i name="ENCUT">    400.00000000</i>
  <i type="int" name="ISMEAR">     2</i>
  <i name="SIGMA">      0.01000000</i>
  <i type="int" name="NWRITE">     1</i>
  <v type="int" name="KPOINT_BSE">    -1     0     0     0</v>
 </incar>
 <kpoints>
  <generation param="Monkhorst-Pack">
   <v type="int" name="divisions">       8        8        8 </v>
   <v name="usershift">      0.00000000       0.00000000       0.00000000 </v>
   <v name="genvec1">      0.12500000       0.00000000       0.00000000 </v>
   <v name="genvec2">      0.00000000       0.12500000       0.00000000 </v>
   <v name="genvec3">      0.00000000       0.00000000       0.12500000 </v>
   <v name="shift">      0.50000000       0.50000000       0.50000000 </v>
  </generation>
  <varray name="kpointlist" >
   <v>       0.06250000       0.06250000       0.06250000 </v>
   <v>       0.18750000       0.06250000       0.06250000 </v>
   <v>       0.31250000       0.06250000       0.06250000 </v>
   <v>       0.43750000       0.06250000       0.06250000 </v>
   <v>      -0.43750000       0.06250000       0.06250000 </v>
   <v>      -0.31250000       0.06250000       0.06250000 </v>
   <v>      -0.18750000       0.06250000       0.06250000 </v>
   <v>      -0.06250000       0.06250000       0.06250000 </v>
   <v>       0.06250000       0.18750000       0.06250000 </v>
   <v>       0.18750000       0.18750000       0.06250000 </v>
   <v>       0.31250000       0.18750000       0.06250000 </v>
   <v>       0.43750000       0.18750000       0.06250000 </v>
   <v>      -0.43750000       0.18750000       0.06250000 </v>
   <v>      -0.31250000       0.18750000       0.06250000 </v>
   <v>      -0.18750000       0.18750000       0.06250000 </v>
   <v>      -0.06250000       0.18750000       0.06250000 </v>
   <v>       0.06250000       0.31250000       0.06250000 </v>
   <v>       0.18750000       0.31250000       0.06250000 </v>
   <v>       0.31250000       0.31250000       0.06250000 </v>
   <v>       0.43750000       0.31250000       0.06250000 </v>
   <v>      -0.43750000       0.31250000       0.06250000 </v>
   <v>      -0.31250000       0.31250000       0.06250000 </v>
   <v>      -0.18750000       0.31250000       0.06250000 </v>
   <v>      -0.06250000       0.31250000       0.06250000 </v>
   <v>       0.06250000       0.43750000       0.06250000 </v>
   <v>       0.18750000       0.43750000       0.06250000 </v>
   <v>       0.31250000       0.43750000       0.06250000 </v>
   <v>       0.43750000       0.43750000       0.06250000 </v>
   <v>      -0.43750000       0.43750000       0.06250000 </v>
   <v>      -0.31250000       0.43750000       0.06250000 </v>
   <v>      -0.18750000       0.43750000       0.06250000 </v>
   <v>      -0.06250000       0.43750000       0.06250000 </v>
   <v>       0.06250000      -0.43750000       0.06250000 </v>
   <v>       0.18750000      -0.43750000       0.06250000 </v>
   <v>       0.31250000      -0.43750000       0.06250000 </v>
   <v>       0.43750000      -0.43750000       0.06250000 </v>
   <v>      -0.43750000      -0.43750000       0.06250000 </v>
   <v>      -0.31250000      -0.43750000       0.06250000 </v>
   <v>      -0.18750000      -0.43750000       0.06250000 </v>
   <v>      -0.06250000      -0.43750000       0.06250000 </v>
   <v>       0.06250000      -0.31250000       0.06250000 </v>
   <v>       0.18750000      -0.31250000       0.06250000 </v>
   <v>       0.31250000      -0.31250000       0.06250000 </v>
   <v>       0.43750000      -0.31250000       0.06250000 </v>
   <v>      -0.43750000      -0.31250000       0.06250000 </v>
   <v>      -0.31250000      -0.31250000       0.06250000 </v>
   <v>      -0.18750000      -0.31250000       0.06250000 </v>
   <v>      -0.06250000      -0.31250000       0.06250000 </v>
   <v>       0.06250000      -0.18750000       0.06250000 </v>
   <v>       0.18750000      -0.18750000       0.06250000 </v>
   <v>       0.31250000      -0.18750000       0.06250000 </v>
   <v>       0.43750000      -0.18750000       0.06250000 </v>
   <v>      -0.43750000      -0.18750000       0.06250000 </v>
   <v>      -0.31250000      -0.18750000       0.06250000 </v>
   <v>      -0.18750000      -0.18750000       0.06250000 </v>
   <v>      -0.06250000      -0.18750000       0.06250000 </v>
   <v>       0.06250000      -0.06250000       0.06250000 </v>
   <v>       0.18750000      -0.06250000       0.06250000 </v>
   <v>       0.31250000      -0.06250000       0.06250000 </v>
   <v>       0.43750000      -0.06250000       0.06250000 </v>
   <v>      -0.43750000      -0.06250000       0.06250000 </v>
   <v>      -0.31250000      -0.06250000       0.06250000 </v>
   <v>      -0.18750000      -0.06250000       0.06250000 </v>
   <v>      -0.06250000      -0.06250000       0.06250000 </v>
   <v>       0.06250000       0.06250000       0.18750000 </v>
   <v>       0.18750000       0.06250000       0.18750000 </v>
   <v>       0.31250000       0.06250000       0.18750000 </v>
   <v>       0.43750000       0.06250000       0.18750000 </v>
   <v>      -0.43750000       0.06250000       0.18750000 </v>
   <v>      -0.31250000       0.06250000       0.18750000 </v>
   <v>      -0.18750000       0.06250000       0.18750000 </v>
   <v>      -0.06250000       0.06250000       0.18750000 </v>
   <v>       0.06250000       0.18750000       0.18750000 </v>
   <v>       0.18750000       0.18750000       0.18750000 </v>
   <v>       0.31250000       0.18750000       0.18750000 </v>
   <v>       0.43750000       0.18750000       0.18750000 </v>
   <v>      -0.43750000       0.18750000       0.18750000 </v>
   <v>      -0.31250000       0.18750000       0.18750000 </v>
   <v>      -0.18750000       0.18750000       0.18750000 </v>
   <v>      -0.06250000       0.18750000       0.18750000 </v>
   <v>       0.06250000       0.31250000       0.18750000 </v>
   <v>       0.18750000       0.31250000       0.18750000 </v>
   <v>       0.31250000       0.31250000       0.18750000 </v>
   <v>       0.43750000       0.31250000       0.18750000 </v>
   <v>      -0.43750000       0.31250000       0.18750000 </v>
   <v>      -0.31250000       0.31250000       0.18750000 </v>
   <v>      -0.18750000       0.31250000       0.18750000 </v>
   <v>      -0.06250000       0.31250000       0.18750000 </v>
   <v>       0.06250000       0.43750000       0.18750000 </v>
   <v>       0.18750000       0.43750000       0.18750000 </v>
   <v>       0.31250000       0.43750000       0.18750000 </v>
   <v>       0.43750000       0.43750000       0.18750000 </v>
   <v>      -0.43750000       0.43750000       0.18750000 </v>
   <v>      -0.31250000       0.43750000       0.18750000 </v>
   <v>      -0.18750000       0.43750000       0.18750000 </v>
   <v>      -0.06250000       0.43750000       0.18750000 </v>
   <v>       0.06250000      -0.43750000       0.18750000 </v>
   <v>       0.18750000      -0.43750000       0.18750000 </v>
   <v>       0.31250000      -0.43750000       0.18750000 </v>
   <v>       0.43750000      -0.43750000       0.18750000 </v>
   <v>      -0.43750000      -0.43750000       0.18750000 </v>
   <v>      -0.31250000      -0.43750000       0.18750000 </v>
   <v>      -0.18750000      -0.43750000       0.18750000 </v>
   <v>      -0.06250000      -0.43750000       0.18750000 </v>
   <v>       0.06250000      -0.31250000       0.18750000 </v>
   <v>       0.18750000      -0.31250000       0.18750000 </v>
   <v>       0.31250000      -0.31250000       0.18750000 </v>
   <v>       0.43750000      -0.31250000       0.18750000 </v>
   <v>      -0.43750000      -0.31250000       0.18750000 </v>
   <v>      -0.31250000      -0.31250000       0.18750000 </v>
   <v>      -0.18750000      -0.31250000       0.18750000 </v>
   <v>      -0.06250000      -0.31250000       0.18750000 </v>
   <v>       0.06250000      -0.18750000       0.18750000 </v>
   <v>       0.18750000      -0.18750000       0.18750000 </v>
   <v>       0.31250000      -0.18750000       0.18750000 </v>
   <v>       0.43750000      -0.18750000       0.18750000 </v>
   <v>      -0.43750000      -0.18750000       0.18750000 </v>
   <v>      -0.31250000      -0.18750000       0.18750000 </v>
   <v>      -0.18750000      -0.18750000       0.18750000 </v>
   <v>      -0.06250000      -0.18750000       0.18750000 </v>
   <v>       0.06250000      -0.06250000       0.18750000 </v>
   <v>       0.18750000      -0.06250000       0.18750000 </v>
   <v>       0.31250000      -0.06250000       0.18750000 </v>
   <v>       0.43750000      -0.06250000       0.18750000 </v>
   <v>      -0.43750000      -0.06250000       0.18750000 </v>
   <v>      -0.31250000      -0.06250000       0.18750000 </v>
   <v>      -0.18750000      -0.06250000       0.18750000 </v>
   <v>      -0.06250000      -0.06250000       0.18750000 </v>
   <v>       0.06250000       0.06250000       0.31250000 </v>
   <v>       0.18750000       0.06250000       0.31250000 </v>
   <v>       0.31250000       0.06250000       0.31250000 </v>
   <v>       0.43750000       0.06250000       0.31250000 </v>
   <v>      -0.43750000       0.06250000       0.31250000 </v>
   <v>      -0.31250000       0.06250000       0.31250000 </v>
   <v>      -0.18750000       0.06250000       0.31250000 </v>
   <v>      -0.06250000       0.06250000       0.31250000 </v>
   <v>       0.06250000       0.18750000       0.31250000 </v>
   <v>       0.18750000       0.18750000       0.31250000 </v>
   <v>       0.31250000       0.18750000       0.31250000 </v>
   <v>       0.43750000       0.18750000       0.31250000 </v>
   <v>      -0.43750000       0.18750000       0.31250000 </v>
   <v>      -0.31250000       0.18750000       0.31250000 </v>
   <v>      -0.18750000       0.18750000       0.31250000 </v>
   <v>      -0.06250000       0.18750000       0.31250000 </v>
   <v>       0.06250000       0.31250000       0.31250000 </v>
   <v>       0.18750000       0.31250000       0.31250000 </v>
   <v>       0.31250000       0.31250000       0.31250000 </v>
   <v>       0.43750000       0.31250000       0.31250000 </v>
   <v>      -0.43750000       0.31250000       0.31250000 </v>
   <v>      -0.31250000       0.31250000       0.31250000 </v>
   <v>      -0.18750000       0.31250000       0.31250000 </v>
   <v>      -0.06250000       0.31250000       0.31250000 </v>
   <v>       0.06250000       0.43750000       0.31250000 </v>
   <v>       0.18750000       0.43750000       0.31250000 </v>
   <v>       0.31250000       0.43750000       0.31250000 </v>
   <v>       0.43750000       0.43750000       0.31250000 </v>
   <v>      -0.43750000       0.43750000       0.31250000 </v>
   <v>      -0.31250000       0.43750000       0.31250000 </v>
   <v>      -0.18750000       0.43750000       0.31250000 </v>
   <v>      -0.06250000       0.43750000       0.31250000 </v>
   <v>       0.06250000      -0.43750000       0.31250000 </v>
   <v>       0.18750000      -0.43750000       0.31250000 </v>
   <v>       0.31250000      -0.43750000       0.31250000 </v>
   <v>       0.43750000      -0.43750000       0.31250000 </v>
   <v>      -0.43750000      -0.43750000       0.31250000 </v>
   <v>      -0.31250000      -0.43750000       0.31250000 </v>
   <v>      -0.18750000      -0.43750000       0.31250000 </v>
   <v>      -0.06250000      -0.43750000       0.31250000 </v>
   <v>       0.06250000      -0.31250000       0.31250000 </v>
   <v>       0.18750000      -0.31250000       0.31250000 </v>
   <v>       0.31250000      -0.31250000       0.31250000 </v>
   <v>       0.43750000      -0.31250000       0.31250000 </v>
   <v>      -0.43750000      -0.31250000       0.31250000 </v>
   <v>      -0.31250000      -0.31250000       0.31250000 </v>
   <v>      -0.18750000      -0.31250000       0.31250000 </v>
   <v>      -0.06250000      -0.31250000       0.31250000 </v>
   <v>       0.06250000      -0.18750000       0.31250000 </v>
   <v>       0.18750000      -0.18750000       0.31250000 </v>
   <v>       0.31250000      -0.18750000       0.31250000 </v>
   <v>       0.43750000      -0.18750000       0.31250000 </v>
   <v>      -0.43750000      -0.18750000       0.31250000 </v>
   <v>      -0.31250000      -0.18750000       0.31250000 </v>
   <v>      -0.18750000      -0.18750000       0.31250000 </v>
   <v>      -0.06250000      -0.18750000       0.31250000 </v>
   <v>       0.06250000      -0.06250000       0.31250000 </v>
   <v>       0.18750000      -0.06250000       0.31250000 </v>
   <v>       0.31250000      -0.06250000       0.31250000 </v>
   <v>       0.43750000      -0.06250000       0.31250000 </v>
   <v>      -0.43750000      -0.06250000       0.31250000 </v>
   <v>      -0.31250000      -0.06250000       0.31250000 </v>
   <v>      -0.18750000      -0.06250000       0.31250000 </v>
   <v>      -0.06250000      -0.06250000       0.31250000 </v>
   <v>       0.06250000       0.06250000       0.43750000 </v>
   <v>       0.18750000       0.06250000       0.43750000 </v>
   <v>       0.31250000       0.06250000       0.43750000 </v>
   <v>       0.43750000       0.06250000       0.43750000 </v>
   <v>      -0.43750000       0.06250000       0.43750000 </v>
   <v>      -0.31250000       0.06250000       0.43750000 </v>
   <v>      -0.18750000       0.06250000       0.43750000 </v>
   <v>      -0.06250000       0.06250000       0.43750000 </v>
   <v>       0.06250000       0.18750000       0.43750000 </v>
   <v>       0.18750000       0.18750000       0.43750000 </v>
   <v>       0.31250000       0.18750000       0.43750000 </v>
   <v>       0.43750000       0.18750000       0.43750000 </v>
   <v>      -0.43750000       0.18750000       0.43750000 </v>
   <v>      -0.31250000       0.18750000       0.43750000 </v>
   <v>      -0.18750000       0.18750000       0.43750000 </v>
   <v>      -0.06250000       0.18750000       0.43750000 </v>
   <v>       0.06250000       0.31250000       0.43750000 </v>
   <v>       0.18750000       0.31250000       0.43750000 </v>
   <v>       0.31250000       0.31250000       0.43750000 </v>
   <v>       0.43750000       0.31250000       0.43750000 </v>
   <v>      -0.43750000       0.31250000       0.43750000 </v>
   <v>      -0.31250000       0.31250000       0.43750000 </v>
   <v>      -0.18750000       0.31250000       0.43750000 </v>
   <v>      -0.06250000       0.31250000       0.43750000 </v>
   <v>       0.06250000       0.43750000       0.43750000 </v>
   <v>       0.18750000       0.43750000       0.43750000 </v>
   <v>       0.31250000       0.43750000       0.43750000 </v>
   <v>       0.43750000       0.43750000       0.43750000 </v>
   <v>      -0.43750000       0.43750000       0.43750000 </v>
   <v>      -0.31250000       0.43750000       0.43750000 </v>
   <v>      -0.18750000       0.43750000       0.43750000 </v>
   <v>      -0.06250000       0.43750000       0.43750000 </v>
   <v>       0.06250000      -0.43750000       0.43750000 </v>
   <v>       0.18750000      -0.43750000       0.43750000 </v>
   <v>       0.31250000      -0.43750000       0.43750000 </v>
   <v>       0.43750000      -0.43750000       0.43750000 </v>
   <v>      -0.43750000      -0.43750000       0.43750000 </v>
   <v>      -0.31250000      -0.43750000       0.43750000 </v>
   <v>      -0.18750000      -0.43750000       0.43750000 </v>
   <v>      -0.06250000      -0.43750000       0.43750000 </v>
   <v>       0.06250000      -0.31250000       0.43750000 </v>
   <v>       0.18750000      -0.31250000       0.43750000 </v>
   <v>       0.31250000      -0.31250000       0.43750000 </v>
   <v>       0.43750000      -0.31250000       0.43750000 </v>
   <v>      -0.43750000      -0.31250000       0.43750000 </v>
   <v>      -0.31250000      -0.31250000       0.43750000 </v>
   <v>      -0.18750000      -0.31250000       0.43750000 </v>
   <v>      -0.06250000      -0.31250000       0.43750000 </v>
   <v>       0.06250000      -0.18750000       0.43750000 </v>
   <v>       0.18750000      -0.18750000       0.43750000 </v>
   <v>       0.31250000      -0.18750000       0.43750000 </v>
   <v>       0.43750000      -0.18750000       0.43750000 </v>
   <v>      -0.43750000      -0.18750000       0.43750000 </v>
   <v>      -0.31250000      -0.18750000       0.43750000 </v>
   <v>      -0.18750000      -0.18750000       0.43750000 </v>
   <v>      -0.06250000      -0.18750000       0.43750000 </v>
   <v>       0.06250000      -0.06250000       0.43750000 </v>
   <v>       0.18750000      -0.06250000       0.43750000 </v>
   <v>       0.31250000      -0.06250000       0.43750000 </v>
   <v>       0.43750000      -0.06250000       0.43750000 </v>
   <v>      -0.43750000      -0.06250000       0.43750000 </v>
   <v>      -0.31250000      -0.06250000       0.43750000 </v>
   <v>      -0.18750000      -0.06250000       0.43750000 </v>
   <v>      -0.06250000      -0.06250000       0.43750000 </v>
  </varray>
  <varray name="weights" >
   <v>       0.00390625 </v>
   <v>       0.00390625 </v>
   <v>       0.00390625 </v>
   <v>       0.00390625 </v>
   <v>       0.00390625 </v>
   <v>       0.00390625 </v>
   <v>       0.00390625 </v>
   <v>       0.00390625 </v>
   <v>       0.00390625 </v>
   <v>       0.00390625 </v>
   <v>       0.00390625 </v>
   <v>       0.00390625 </v>
   <v>       0.00390625 </v>
   <v>       0.00390625 </v>
   <v>       0.00390625 </v>
   <v>       0.00390625 </v>
   <v>       0.00390625 </v>
   <v>       0.00390625 </v>
   <v>       0.00390625 </v>
   <v>       0.00390625 </v>
   <v>       0.00390625 </v>
   <v>       0.00390625 </v>
   <v>       0.00390625 </v>
   <v>       0.00390625 </v>
   <v>       0.00390625 </v>
   <v>       0.00390625 </v>
   <v>       0.00390625 </v>
   <v>       0.00390625 </v>
   <v>       0.00390625 </v>
   <v>       0.00390625 </v>
   <v>       0.00390625 </v>
   <v>       0.00390625 </v>
   <v>       0.00390625 </v>
   <v>       0.00390625 </v>
   <v>       0.00390625 </v>
   <v>       0.00390625 </v>
   <v>       0.00390625 </v>
   <v>       0.00390625 </v>
   <v>       0.00390625 </v>
   <v>       0.00390625 </v>
   <v>       0.00390625 </v>
   <v>       0.00390625 </v>
   <v>       0.00390625 </v>
   <v>       0.00390625 </v>
   <v>       0.00390625 </v>
   <v>       0.00390625 </v>
   <v>       0.00390625 </v>
   <v>       0.00390625 </v>
   <v>       0.00390625 </v>
   <v>       0.00390625 </v>
   <v>       0.00390625 </v>
   <v>       0.00390625 </v>
   <v>       0.00390625 </v>
   <v>       0.00390625 </v>
   <v>       0.00390625 </v>
   <v>       0.00390625 </v>
   <v>       0.00390625 </v>
   <v>       0.00390625 </v>
   <v>       0.00390625 </v>
   <v>       0.00390625 </v>
   <v>       0.00390625 </v>
   <v>       0.00390625 </v>
   <v>       0.00390625 </v>
   <v>       0.00390625 </v>
   <v>       0.00390625 </v>
   <v>       0.00390625 </v>
   <v>       0.00390625 </v>
   <v>       0.00390625 </v>
   <v>       0.00390625 </v>
   <v>       0.00390625 </v>
   <v>       0.00390625 </v>
   <v>       0.00390625 </v>
   <v>       0.00390625 </v>
   <v>       0.00390625 </v>
   <v>       0.00390625 </v>
   <v>       0.00390625 </v>
   <v>       0.00390625 </v>
   <v>       0.00390625 </v>
   <v>       0.00390625 </v>
   <v>       0.00390625 </v>
   <v>       0.00390625 </v>
   <v>       0.00390625 </v>
   <v>       0.00390625 </v>
   <v>       0.00390625 </v>
   <v>       0.00390625 </v>
   <v>       0.00390625 </v>
   <v>       0.00390625 </v>
   <v>       0.00390625 </v>
   <v>       0.00390625 </v>
   <v>       0.00390625 </v>
   <v>       0.00390625 </v>
   <v>       0.00390625 </v>
   <v>       0.00390625 </v>
   <v>       0.00390625 </v>
   <v>       0.00390625 </v>
   <v>       0.00390625 </v>
   <v>       0.00390625 </v>
   <v>       0.00390625 </v>
   <v>       0.00390625 </v>
   <v>       0.00390625 </v>
   <v>       0.00390625 </v>
   <v>       0.00390625 </v>
   <v>       0.00390625 </v>
   <v>       0.00390625 </v>
   <v>       0.00390625 </v>
   <v>       0.00390625 </v>
   <v>       0.00390625 </v>
   <v>       0.00390625 </v>
   <v>       0.00390625 </v>
   <v>       0.00390625 </v>
   <v>       0.00390625 </v>
   <v>       0.00390625 </v>
   <v>       0.00390625 </v>
   <v>       0.00390625 </v>
   <v>       0.00390625 </v>
   <v>       0.00390625 </v>
   <v>       0.00390625 </v>
   <v>       0.00390625 </v>
   <v>       0.00390625 </v>
   <v>       0.00390625 </v>
   <v>       0.00390625 </v>
   <v>       0.00390625 </v>
   <v>       0.00390625 </v>
   <v>       0.00390625 </v>
   <v>       0.00390625 </v>
   <v>       0.00390625 </v>
   <v>       0.00390625 </v>
   <v>       0.00390625 </v>
   <v>       0.00390625 </v>
   <v>       0.00390625 </v>
   <v>       0.00390625 </v>
   <v>       0.00390625 </v>
   <v>       0.00390625 </v>
   <v>       0.00390625 </v>
   <v>       0.00390625 </v>
   <v>       0.00390625 </v>
   <v>       0.00390625 </v>
   <v>       0.00390625 </v>
   <v>       0.00390625 </v>
   <v>       0.00390625 </v>
   <v>       0.00390625 </v>
   <v>       0.00390625 </v>
   <v>       0.00390625 </v>
   <v>       0.00390625 </v>
   <v>       0.00390625 </v>
   <v>       0.00390625 </v>
   <v>       0.00390625 </v>
   <v>       0.00390625 </v>
   <v>       0.00390625 </v>
   <v>       0.00390625 </v>
   <v>       0.00390625 </v>
   <v>       0.00390625 </v>
   <v>       0.00390625 </v>
   <v>       0.00390625 </v>
   <v>       0.00390625 </v>
   <v>       0.00390625 </v>
   <v>       0.00390625 </v>
   <v>       0.00390625 </v>
   <v>       0.00390625 </v>
   <v>       0.00390625 </v>
   <v>       0.00390625 </v>
   <v>       0.00390625 </v>
   <v>       0.00390625 </v>
   <v>       0.00390625 </v>
   <v>       0.00390625 </v>
   <v>       0.00390625 </v>
   <v>       0.00390625 </v>
   <v>       0.00390625 </v>
   <v>       0.00390625 </v>
   <v>       0.00390625 </v>
   <v>       0.00390625 </v>
   <v>       0.00390625 </v>
   <v>       0.00390625 </v>
   <v>       0.00390625 </v>
   <v>       0.00390625 </v>
   <v>       0.00390625 </v>
   <v>       0.00390625 </v>
   <v>       0.00390625 </v>
   <v>       0.00390625 </v>
   <v>       0.00390625 </v>
   <v>       0.00390625 </v>
   <v>       0.00390625 </v>
   <v>       0.00390625 </v>
   <v>       0.00390625 </v>
   <v>       0.00390625 </v>
   <v>       0.00390625 </v>
   <v>       0.00390625 </v>
   <v>       0.00390625 </v>
   <v>       0.00390625 </v>
   <v>       0.00390625 </v>
   <v>       0.00390625 </v>
   <v>       0.00390625 </v>
   <v>       0.00390625 </v>
   <v>       0.00390625 </v>
   <v>       0.00390625 </v>
   <v>       0.00390625 </v>
   <v>       0.00390625 </v>
   <v>       0.00390625 </v>
   <v>       0.00390625 </v>
   <v>       0.00390625 </v>
   <v>       0.00390625 </v>
   <v>       0.00390625 </v>
   <v>       0.00390625 </v>
   <v>       0.00390625 </v>
   <v>       0.00390625 </v>
   <v>       0.00390625 </v>
   <v>       0.00390625 </v>
   <v>       0.00390625 </v>
   <v>       0.00390625 </v>
   <v>       0.00390625 </v>
   <v>       0.00390625 </v>
   <v>       0.00390625 </v>
   <v>       0.00390625 </v>
   <v>       0.00390625 </v>
   <v>       0.00390625 </v>
   <v>       0.00390625 </v>
   <v>       0.00390625 </v>
   <v>       0.00390625 </v>
   <v>       0.00390625 </v>
   <v>       0.00390625 </v>
   <v>       0.00390625 </v>
   <v>       0.00390625 </v>
   <v>       0.00390625 </v>
   <v>       0.00390625 </v>
   <v>       0.00390625 </v>
   <v>       0.00390625 </v>
   <v>       0.00390625 </v>
   <v>       0.00390625 </v>
   <v>       0.00390625 </v>
   <v>       0.00390625 </v>
   <v>       0.00390625 </v>
   <v>       0.00390625 </v>
   <v>       0.00390625 </v>
   <v>       0.00390625 </v>
   <v>       0.00390625 </v>
   <v>       0.00390625 </v>
   <v>       0.00390625 </v>
   <v>       0.00390625 </v>
   <v>       0.00390625 </v>
   <v>       0.00390625 </v>
   <v>       0.00390625 </v>
   <v>       0.00390625 </v>
   <v>       0.00390625 </v>
   <v>       0.00390625 </v>
   <v>       0.00390625 </v>
   <v>       0.00390625 </v>
   <v>       0.00390625 </v>
   <v>       0.00390625 </v>
   <v>       0.00390625 </v>
   <v>       0.00390625 </v>
   <v>       0.00390625 </v>
   <v>       0.00390625 </v>
   <v>       0.00390625 </v>
   <v>       0.00390625 </v>
   <v>       0.00390625 </v>
   <v>       0.00390625 </v>
  </varray>
 </kpoints>
 <parameters>
  <separator name="general" >
   <i type="string" name="SYSTEM">unknown system</i>
   <i type="logical" name="LCOMPAT"> F  </i>
  </separator>
  <separator name="electronic" >
   <i type="string" name="PREC">accura</i>
   <i name="ENMAX">    400.00000000</i>
   <i name="ENAUG">    322.06900000</i>
   <i name="EDIFF">      0.00010000</i>
   <i type="int" name="IALGO">    38</i>
   <i type="int" name="IWAVPR">    10</i>
   <i type="int" name="NBANDS">    24</i>
   <i name="NELECT">     32.00000000</i>
   <i type="int" name="TURBO">     0</i>
   <i type="int" name="IRESTART">     0</i>
   <i type="int" name="NREBOOT">     0</i>
   <i type="int" name="NMIN">     0</i>
   <i name="EREF">      0.00000000</i>
   <separator name="electronic smearing" >
    <i type="int" name="ISMEAR">     2</i>
    <i name="SIGMA">      0.01000000</i>
    <i name="KSPACING">      0.50000000</i>
    <i type="logical" name="KGAMMA"> T  </i>
   </separator>
   <separator name="electronic projectors" >
    <i type="logical" name="LREAL"> F  </i>
    <v name="ROPT">      0.00000000</v>
    <i type="int" name="LMAXPAW">  -100</i>
    <i type="int" name="LMAXMIX">     2</i>
    <i type="logical" name="NLSPLINE"> F  </i>
   </separator>
   <separator name="electronic startup" >
    <i type="int" name="ISTART">     0</i>
    <i type="int" name="ICHARG">     2</i>
    <i type="int" name="INIWAV">     1</i>
   </separator>
   <separator name="electronic spin" >
    <i type="int" name="ISPIN">     1</i>
    <i type="logical" name="LNONCOLLINEAR"> F  </i>
    <v name="MAGMOM">      1.00000000      1.00000000      1.00000000      1.00000000      1.00000000      1.00000000      1.00000000      1.00000000</v>
    <i name="NUPDOWN">     -1.00000000</i>
    <i type="logical" name="LSORBIT"> F  </i>
    <v name="SAXIS">      0.00000000      0.00000000      1.00000000</v>
    <i type="logical" name="LSPIRAL"> F  </i>
    <v name="QSPIRAL">      0.00000000      0.00000000      0.00000000</v>
    <i type="logical" name="LZEROZ"> F  </i>
   </separator>
   <separator name="electronic exchange-correlation" >
    <i type="logical" name="LASPH"> F  </i>
    <i type="logical" name="LMETAGGA"> F  </i>
   </separator>
   <separator name="electronic convergence" >
    <i type="int" name="NELM">    60</i>
    <i type="int" name="NELMDL">    -5</i>
    <i type="int" name="NELMIN">     2</i>
    <i name="ENINI">    400.00000000</i>
    <separator name="electronic convergence detail" >
     <i type="logical" name="LDIAG"> T  </i>
     <i type="logical" name="LSUBROT"> F  </i>
     <i name="WEIMIN">      0.00000000</i>
     <i name="EBREAK">      0.00000104</i>
     <i name="DEPER">      0.30000000</i>
     <i type="int" name="NRMM">     4</i>
     <i name="TIME">      0.40000000</i>
    </separator>
   </separator>
   <separator name="electronic mixer" >
    <i name="AMIX">      0.40000000</i>
    <i name="BMIX">      1.00000000</i>
    <i name="AMIN">      0.10000000</i>
    <i name="AMIX_MAG">      1.60000000</i>
    <i name="BMIX_MAG">      1.00000000</i>
    <separator name="electronic mixer details" >
     <i type="int" name="IMIX">     4</i>
     <i type="logical" name="MIXFIRST"> F  </i>
     <i type="int" name="MAXMIX">   -45</i>
     <i name="WC">    100.00000000</i>
     <i type="int" name="INIMIX">     1</i>
     <i type="int" name="MIXPRE">     1</i>
     <i type="int" name="MREMOVE">     5</i>
    </separator>
   </separator>
   <separator name="electronic dipolcorrection" >
    <i type="logical" name="LDIPOL"> F  </i>
    <i type="logical" name="LMONO"> F  </i>
    <i type="int" name="IDIPOL">     0</i>
    <i name="EPSILON">      1.00000000</i>
    <v name="DIPOL">   -100.00000000   -100.00000000   -100.00000000</v>
    <i name="EFIELD">      0.00000000</i>
   </separator>
  </separator>
  <separator name="grids" >
   <i type="int" name="NGX">    36</i>
   <i type="int" name="NGY">    36</i>
   <i type="int" name="NGZ">    36</i>
   <i type="int" name="NGXF">    72</i>
   <i type="int" name="NGYF">    72</i>
   <i type="int" name="NGZF">    72</i>
   <i type="logical" name="ADDGRID"> F  </i>
  </separator>
  <separator name="ionic" >
   <i type="int" name="NSW">     0</i>
   <i type="int" name="IBRION">    -1</i>
   <i type="int" name="ISIF">     2</i>
   <i name="PSTRESS">      0.00000000</i>
   <i name="EDIFFG">      0.00100000</i>
   <i type="int" name="NFREE">     0</i>
   <i name="POTIM">      0.50000000</i>
   <i name="SMASS">     -3.00000000</i>
   <i name="SCALEE">      1.00000000</i>
  </separator>
  <separator name="ionic md" >
   <i name="TEBEG">      0.00010000</i>
   <i name="TEEND">      0.00010000</i>
   <i type="int" name="NBLOCK">     1</i>
   <i type="int" name="KBLOCK">     1</i>
   <i type="int" name="NPACO">   256</i>
   <i name="APACO">     16.00000000</i>
  </separator>
  <separator name="symmetry" >
   <i type="int" name="ISYM">     2</i>
   <i name="SYMPREC">      0.00001000</i>
  </separator>
  <separator name="dos" >
   <i type="logical" name="LORBIT"> F  </i>
   <v name="RWIGS">     -1.00000000</v>
   <i type="int" name="NEDOS">   301</i>
   <i name="EMIN">     10.00000000</i>
   <i name="EMAX">    -10.00000000</i>
   <i name="EFERMI">      0.00000000</i>
  </separator>
  <separator name="writing" >
   <i type="int" name="NWRITE">     1</i>
   <i type="logical" name="LWAVE"> T  </i>
   <i type="logical" name="LCHARG"> T  </i>
   <i type="logical" name="LPARD"> F  </i>
   <i type="logical" name="LVTOT"> F  </i>
   <i type="logical" name="LVHAR"> F  </i>
   <i type="logical" name="LELF"> F  </i>
   <i type="logical" name="LOPTICS"> F  </i>
   <v name="STM">      0.00000000      0.00000000      0.00000000      0.00000000      0.00000000      0.00000000      0.00000000</v>
  </separator>
  <separator name="performance" >
   <i type="int" name="NPAR">     8</i>
   <i type="int" name="NSIM">     4</i>
   <i type="int" name="NBLK">    -1</i>
   <i type="logical" name="LPLANE"> T  </i>
   <i type="logical" name="LSCALAPACK"> T  </i>
   <i type="logical" name="LSCAAWARE"> F  </i>
   <i type="logical" name="LSCALU"> F  </i>
   <i type="logical" name="LASYNC"> F  </i>
   <i type="logical" name="LORBITALREAL"> F  </i>
  </separator>
  <separator name="miscellaneous" >
   <i type="int" name="IDIOT">     3</i>
   <i type="logical" name="LMUSIC"> F  </i>
   <v name="POMASS">     28.08500000</v>
   <v name="DARWINR">      0.00000000</v>
   <v name="DARWINV">      1.00000000</v>
   <i type="logical" name="LCORR"> T  </i>
  </separator>
  <i type="logical" name="GGA_COMPAT"> T  </i>
  <i type="logical" name="LBERRY"> F  </i>
  <i type="int" name="ICORELEVEL">     0</i>
  <i type="logical" name="LDAU"> F  </i>
  <i type="int" name="I_CONSTRAINED_M">     0</i>
  <separator name="electronic exchange-correlation" >
   <i type="string" name="GGA">--</i>
   <i type="int" name="VOSKOWN">     0</i>
   <i type="logical" name="LHFCALC"> F  </i>
   <i type="string" name="PRECFOCK"></i>
   <i type="logical" name="LSYMGRAD"> F  </i>
   <i type="logical" name="LHFONE"> F  </i>
   <i type="logical" name="LRHFCALC"> F  </i>
   <i type="logical" name="LTHOMAS"> F  </i>
   <i type="logical" name="LMODELHF"> F  </i>
   <i name="ENCUT4O">     -1.00000000</i>
   <i type="int" name="EXXOEP">     0</i>
   <i type="int" name="FOURORBIT">     0</i>
   <i name="AEXX">      0.00000000</i>
   <i name="HFALPHA">      0.00000000</i>
   <i name="MCALPHA">      0.00000000</i>
   <i name="ALDAX">      1.00000000</i>
   <i name="AGGAX">      1.00000000</i>
   <i name="ALDAC">      1.00000000</i>
   <i name="AGGAC">      1.00000000</i>
   <i type="int" name="NKREDX">     1</i>
   <i type="int" name="NKREDY">     1</i>
   <i type="int" name="NKREDZ">     1</i>
   <i type="logical" name="SHIFTRED"> F  </i>
   <i type="logical" name="ODDONLY"> F  </i>
   <i type="logical" name="EVENONLY"> F  </i>
   <i type="int" name="LMAXFOCK">     0</i>
   <i type="int" name="NMAXFOCKAE">     0</i>
   <i type="logical" name="LFOCKAEDFT"> F  </i>
   <i name="HFSCREEN">      0.00000000</i>
   <i name="HFSCREENC">      0.00000000</i>
   <i type="int" name="NBANDSGWLOW">     0</i>
  </separator>
  <separator name="vdW DFT" >
   <i type="logical" name="LUSE_VDW"> F  </i>
   <i name="Zab_VDW">     -0.84910000</i>
   <i name="PARAM1">      0.12340000</i>
   <i name="PARAM2">      1.00000000</i>
   <i name="PARAM3">      0.00000000</i>
  </separator>
  <separator name="model GW" >
   <i type="int" name="MODEL_GW">     0</i>
   <i name="MODEL_EPS0">     12.26874997</i>
   <i name="MODEL_ALPHA">      1.00000000</i>
  </separator>
  <separator name="linear response parameters" >
   <i type="logical" name="LEPSILON"> F  </i>
   <i type="logical" name="LRPA"> F  </i>
   <i type="logical" name="LNABLA"> F  </i>
   <i type="logical" name="LVEL"> F  </i>
   <i type="int" name="KINTER">     0</i>
   <i name="CSHIFT">      0.10000000</i>
   <i name="OMEGAMAX">     -1.00000000</i>
   <i name="DEG_THRESHOLD">      0.00200000</i>
  </separator>
  <separator name="orbital magnetization" >
   <i type="logical" name="NUCIND"> F  </i>
   <v name="MAGPOS">      0.00000000      0.00000000      0.00000000</v>
   <i type="logical" name="LNICSALL"> T  </i>
   <i type="logical" name="ORBITALMAG"> F  </i>
   <i type="logical" name="LMAGBLOCH"> F  </i>
   <i type="logical" name="LCHIMAG"> F  </i>
   <i type="logical" name="LGAUGE"> T  </i>
   <i type="int" name="MAGATOM">     0</i>
   <v name="MAGDIPOL">      0.00000000      0.00000000      0.00000000</v>
   <v name="AVECCONST">      0.00000000      0.00000000      0.00000000</v>
  </separator>
  <separator name="response functions" >
   <i type="logical" name="LADDER"> F  </i>
   <i type="logical" name="LFXC"> F  </i>
   <i type="logical" name="LHARTREE"> T  </i>
   <i type="int" name="IBSE">     0</i>
   <v type="int" name="KPOINT">    -1     0     0     0</v>
   <i type="logical" name="LTCTE"> F  </i>
   <i type="logical" name="LTETE"> F  </i>
   <i type="logical" name="LTRIPLET"> F  </i>
   <i type="logical" name="LFXCEPS"> F  </i>
   <i type="logical" name="LFXHEG"> F  </i>
   <i type="int" name="NATURALO">     0</i>
   <i type="logical" name="L2ORDER"> F  </i>
   <i type="logical" name="LUSEW"> F  </i>
   <i name="ENCUTGW">     -2.00000000</i>
   <i name="ENCUTGWSOFT">     -2.00000000</i>
   <i name="ENCUTLF">     -1.00000000</i>
   <i type="int" name="LMAXMP2">    -1</i>
   <i name="SCISSOR">      0.00000000</i>
   <i type="int" name="NOMEGA">     0</i>
   <i type="int" name="NOMEGAR">     0</i>
   <i type="int" name="NBANDSGW">    -1</i>
   <i type="int" name="NBANDSO">    -1</i>
   <i type="int" name="NBANDSV">    -1</i>
   <i type="int" name="NELM">     1</i>
   <i type="int" name="NELMHF">     1</i>
   <i type="int" name="DIM">     3</i>
   <i type="int" name="ANTIRES">     0</i>
   <i name="OMEGAMAX">    -30.00000000</i>
   <i name="OMEGAMIN">    -30.00000000</i>
   <i name="OMEGATL">   -200.00000000</i>
   <i type="int" name="OMEGAGRID">     0</i>
   <i name="CSHIFT">     -0.10000000</i>
   <i type="logical" name="SELFENERGY"> F  </i>
   <i type="logical" name="LSPECTRAL"> F  </i>
   <i type="logical" name="LSPECTRALGW"> F  </i>
   <i type="logical" name="LSINGLES"> F  </i>
   <i type="logical" name="LFERMIGW"> F  </i>
   <i type="logical" name="ODDONLYGW"> F  </i>
   <i type="logical" name="EVENONLYGW"> F  </i>
   <i type="int" name="NKREDLFX">     1</i>
   <i type="int" name="NKREDLFY">     1</i>
   <i type="int" name="NKREDLFZ">     1</i>
   <i type="int" name="MAXMEM">  1800</i>
   <i type="int" name="TELESCOPE">     0</i>
   <i type="int" name="TAUPAR">     1</i>
   <i type="int" name="OMEGAPAR">    -1</i>
   <i name="LAMBDA">      1.00000000</i>
  </separator>
  <separator name="External order field" >
   <i name="OFIELD_KAPPA">      0.00000000</i>
   <v name="OFIELD_K">      0.00000000      0.00000000      0.00000000</v>
   <i name="OFIELD_Q6_NEAR">      0.00000000</i>
   <i name="OFIELD_Q6_FAR">      0.00000000</i>
   <i name="OFIELD_A">      0.00000000</i>
  </separator>
 </parameters>
 <atominfo>
  <atoms>       8 </atoms>
  <types>       1 </types>
  <array name="atoms" >
   <dimension dim="1">ion</dimension>
   <field type="string">element</field>
   <field type="int">atomtype</field>
   <set>
    <rc><c>Si</c><c>   1</c></rc>
    <rc><c>Si</c><c>   1</c></rc>
    <rc><c>Si</c><c>   1</c></rc>
    <rc><c>Si</c><c>   1</c></rc>
    <rc><c>Si</c><c>   1</c></rc>
    <rc><c>Si</c><c>   1</c></rc>
    <rc><c>Si</c><c>   1</c></rc>
    <rc><c>Si</c><c>   1</c></rc>
   </set>
  </array>
  <array name="atomtypes" >
   <dimension dim="1">type</dimension>
   <field type="int">atomspertype</field>
   <field type="string">element</field>
   <field>mass</field>
   <field>valence</field>
   <field type="string">pseudopotential</field>
   <set>
    <rc><c>   8</c><c>Si</c><c>     28.08500000</c><c>      4.00000000</c><c>  PAW_PBE Si 05Jan2001                  </c></rc>
   </set>
  </array>
 </atominfo>
 <structure name="initialpos" >
  <crystal>
   <varray name="basis" >
    <v>       5.46906415       0.00000000       0.00000000 </v>
    <v>       0.00000000       5.46906415       0.00000000 </v>
    <v>       0.00000000       0.00000000       5.46906415 </v>
   </varray>
   <i name="volume">    163.58333295 </i>
   <varray name="rec_basis" >
    <v>       0.18284664       0.00000000       0.00000000 </v>
    <v>       0.00000000       0.18284664       0.00000000 </v>
    <v>       0.00000000       0.00000000       0.18284664 </v>
   </varray>
  </crystal>
  <varray name="positions" >
   <v>       0.15239779       0.99349160       0.09430974 </v>
   <v>       0.39952916       0.24726678       0.32396245 </v>
   <v>       0.65151777       0.49110674       0.09043859 </v>
   <v>       0.89115107       0.76594435       0.34157082 </v>
   <v>       0.63874114       0.01606572       0.61476574 </v>
   <v>       0.90195733       0.25024280       0.83709994 </v>
   <v>       0.14288933       0.51750240       0.57934743 </v>
   <v>       0.40168599       0.75527185       0.84460200 </v>
  </varray>
 </structure>
 <calculation>
  <scstep>
   <time name="dav">    6.16    6.22</time>
   <time name="total">    6.23    6.31</time>
   <energy>
    <i name="alphaZ">     13.17029267 </i>
    <i name="ewald">   -907.19474692 </i>
    <i name="hartreedc">    -45.56673497 </i>
    <i name="XCdc">    -74.74234211 </i>
    <i name="pawpsdc">    704.99039692 </i>
    <i name="pawaedc">   -564.24414232 </i>
    <i name="eentropy">     -0.00001993 </i>
    <i name="bandstr">    103.58859007 </i>
    <i name="atom">    824.52596983 </i>
    <i name="e_fr_energy">     54.52726325 </i>
    <i name="e_wo_entrp">     54.52728318 </i>
    <i name="e_0_energy">     54.52726824 </i>
   </energy>
  </scstep>
  <scstep>
   <time name="dav">    7.58    7.59</time>
   <time name="total">    7.59    7.62</time>
   <energy>
    <i name="e_fr_energy">    -39.57001111 </i>
    <i name="e_wo_entrp">    -39.57001111 </i>
    <i name="e_0_energy">    -39.57001111 </i>
   </energy>
  </scstep>
  <scstep>
   <time name="dav">    7.53    7.55</time>
   <time name="total">    7.55    7.56</time>
   <energy>
    <i name="e_fr_energy">    -43.73104313 </i>
    <i name="e_wo_entrp">    -43.73104313 </i>
    <i name="e_0_energy">    -43.73104313 </i>
   </energy>
  </scstep>
  <scstep>
   <time name="dav">    7.28    7.29</time>
   <time name="total">    7.28    7.30</time>
   <energy>
    <i name="e_fr_energy">    -43.80170399 </i>
    <i name="e_wo_entrp">    -43.80170399 </i>
    <i name="e_0_energy">    -43.80170399 </i>
   </energy>
  </scstep>
  <scstep>
   <time name="dav">    7.61    7.62</time>
   <time name="total">    7.82    7.85</time>
   <energy>
    <i name="e_fr_energy">    -43.80348297 </i>
    <i name="e_wo_entrp">    -43.80348297 </i>
    <i name="e_0_energy">    -43.80348297 </i>
   </energy>
  </scstep>
  <scstep>
   <time name="dav">    7.05    7.05</time>
   <time name="total">    7.28    7.30</time>
   <energy>
    <i name="e_fr_energy">    -43.32457717 </i>
    <i name="e_wo_entrp">    -43.32457717 </i>
    <i name="e_0_energy">    -43.32457717 </i>
   </energy>
  </scstep>
  <scstep>
   <time name="dav">    7.04    7.03</time>
   <time name="total">    7.28    7.28</time>
   <energy>
    <i name="e_fr_energy">    -43.10970433 </i>
    <i name="e_wo_entrp">    -43.10970433 </i>
    <i name="e_0_energy">    -43.10970433 </i>
   </energy>
  </scstep>
  <scstep>
   <time name="dav">    7.27    7.27</time>
   <time name="total">    7.50    7.54</time>
   <energy>
    <i name="e_fr_energy">    -43.11350569 </i>
    <i name="e_wo_entrp">    -43.11350569 </i>
    <i name="e_0_energy">    -43.11350569 </i>
   </energy>
  </scstep>
  <scstep>
   <time name="dav">    7.49    7.49</time>
   <time name="total">    7.73    7.74</time>
   <energy>
    <i name="e_fr_energy">    -43.11450312 </i>
    <i name="e_wo_entrp">    -43.11450312 </i>
    <i name="e_0_energy">    -43.11450312 </i>
   </energy>
  </scstep>
  <scstep>
   <time name="dav">    7.14    7.13</time>
   <time name="total">    7.36    7.38</time>
   <energy>
    <i name="e_fr_energy">    -43.11467166 </i>
    <i name="e_wo_entrp">    -43.11467166 </i>
    <i name="e_0_energy">    -43.11467166 </i>
   </energy>
  </scstep>
  <scstep>
   <time name="dav">    5.92    5.92</time>
   <time name="total">    5.95    5.96</time>
   <energy>
    <i name="alphaZ">     13.17029267 </i>
    <i name="ewald">   -907.19474692 </i>
    <i name="hartreedc">    -60.84517996 </i>
    <i name="XCdc">    -72.25766746 </i>
    <i name="pawpsdc">   3317.57655887 </i>
    <i name="pawaedc">  -3177.65606158 </i>
    <i name="eentropy">      0.00000000 </i>
    <i name="bandstr">     19.56610150 </i>
    <i name="atom">    824.52596983 </i>
    <i name="e_fr_energy">    -43.11473305 </i>
    <i name="e_wo_entrp">    -43.11473305 </i>
    <i name="e_0_energy">    -43.11473305 </i>
   </energy>
  </scstep>
  <structure>
   <crystal>
    <varray name="basis" >
     <v>       5.46906415       0.00000000       0.00000000 </v>
     <v>       0.00000000       5.46906415       0.00000000 </v>
     <v>       0.00000000       0.00000000       5.46906415 </v>
    </varray>
    <i name="volume">    163.58333295 </i>
    <varray name="rec_basis" >
     <v>       0.18284664       0.00000000       0.00000000 </v>
     <v>       0.00000000       0.18284664       0.00000000 </v>
     <v>       0.00000000       0.00000000       0.18284664 </v>
    </varray>
   </crystal>
   <varray name="positions" >
    <v>       0.15239779       0.99349160       0.09430974 </v>
    <v>       0.39952916       0.24726678       0.32396245 </v>
    <v>       0.65151777       0.49110674       0.09043859 </v>
    <v>       0.89115107       0.76594435       0.34157082 </v>
    <v>       0.63874114       0.01606572       0.61476574 </v>
    <v>       0.90195733       0.25024280       0.83709994 </v>
    <v>       0.14288933       0.51750240       0.57934743 </v>
    <v>       0.40168599       0.75527185       0.84460200 </v>
   </varray>
  </structure>
  <varray name="forces" >
   <v>      -0.47889335       0.34566034      -0.50883491 </v>
   <v>      -0.30317294       0.41476302       1.46648272 </v>
   <v>       0.31783859       0.85125599      -0.18899660 </v>
   <v>      -0.69371095      -0.23779846       0.33421385 </v>
   <v>       0.09274083      -0.33046357      -1.62624268 </v>
   <v>       0.84964491       0.59236573       0.35534950 </v>
   <v>       0.50893614      -0.69953220       0.13817105 </v>
   <v>      -0.29338323      -0.93625084       0.02985706 </v>
  </varray>
  <varray name="stress" >
   <v>       5.46506935      16.56416057      -1.83981294 </v>
   <v>      16.56416056       2.48845476      -2.86371585 </v>
   <v>      -1.83981292      -2.86371575       0.03700677 </v>
  </varray>
  <energy>
   <i name="e_fr_energy">    -43.11473305 </i>
   <i name="e_wo_entrp">    -43.11473305 </i>
   <i name="e_0_energy">      0.00000000 </i>
  </energy>
  <time name="totalsc">   84.85   85.23</time>
  <eigenvalues>
   <array>
    <dimension dim="1">band</dimension>
    <dimension dim="2">kpoint</dimension>
    <dimension dim="3">spin</dimension>
    <field>eigene</field>
    <field>occ</field>
    <set>
     <set comment="spin 1">
      <set comment="kpoint 1">
       <r>   -6.1684    1.0000 </r>
       <r>   -2.7448    1.0000 </r>
       <r>   -2.6676    1.0000 </r>
       <r>   -2.4418    1.0000 </r>
       <r>   -1.7768    1.0000 </r>
       <r>   -1.6364    1.0000 </r>
       <r>   -1.4349    1.0000 </r>
       <r>    2.5163    1.0000 </r>
       <r>    2.5730    1.0000 </r>
       <r>    2.6999    1.0000 </r>
       <r>    2.8323    1.0000 </r>
       <r>    2.8855    1.0000 </r>
       <r>    2.9420    1.0000 </r>
       <r>    4.9942    1.0000 </r>
       <r>    5.4418    1.0000 </r>
       <r>    5.6985    1.0000 </r>
       <r>    6.2549    0.0000 </r>
       <r>    6.3516    0.0000 </r>
       <r>    6.4848    0.0000 </r>
       <r>    6.6384    0.0000 </r>
       <r>    6.7550    0.0000 </r>
       <r>    6.8495    0.0000 </r>
       <r>    8.1955    0.0000 </r>
       <r>    8.2827    0.0000 </r>
      </set>
      <set comment="kpoint 2">
       <r>   -6.0345    1.0000 </r>
       <r>   -3.4835    1.0000 </r>
       <r>   -2.6327    1.0000 </r>
       <r>   -2.4593    1.0000 </r>
       <r>   -1.7074    1.0000 </r>
       <r>   -1.5291    1.0000 </r>
       <r>   -0.5944    1.0000 </r>
       <r>    2.1113    1.0000 </r>
       <r>    2.2085    1.0000 </r>
       <r>    2.6593    1.0000 </r>
       <r>    2.7981    1.0000 </r>
       <r>    2.8450    1.0000 </r>
       <r>    2.9837    1.0000 </r>
       <r>    4.2534    1.0000 </r>
       <r>    5.0664    1.0000 </r>
       <r>    5.4398    1.0000 </r>
       <r>    6.3430    0.0000 </r>
       <r>    6.7329    0.0000 </r>
       <r>    6.8955    0.0000 </r>
       <r>    7.1124    0.0000 </r>
       <r>    7.4366    0.0000 </r>
       <r>    7.5438    0.0000 </r>
       <r>    8.0754    0.0000 </r>
       <r>    8.5538    0.0000 </r>
      </set>
      <set comment="kpoint 3">
       <r>   -5.7687    1.0000 </r>
       <r>   -4.2207    1.0000 </r>
       <r>   -2.5500    1.0000 </r>
       <r>   -2.3902    1.0000 </r>
       <r>   -1.6796    1.0000 </r>
       <r>   -1.5067    1.0000 </r>
       <r>    0.4312    1.0000 </r>
       <r>    1.7598    1.0000 </r>
       <r>    1.8493    1.0000 </r>
       <r>    2.3907    1.0000 </r>
       <r>    2.5117    1.0000 </r>
       <r>    3.0556    1.0000 </r>
       <r>    3.1963    1.0000 </r>
       <r>    3.3994    1.0000 </r>
       <r>    4.5310    1.0000 </r>
       <r>    4.7994    1.0000 </r>
       <r>    6.4904    0.0000 </r>
       <r>    7.4164    0.0000 </r>
       <r>    7.5929    0.0000 </r>
       <r>    7.8031    0.0000 </r>
       <r>    7.9408    0.0000 </r>
       <r>    8.5544    0.0000 </r>
       <r>    8.7147    0.0000 </r>
       <r>    9.3075    0.0000 </r>
      </set>
      <set comment="kpoint 4">
       <r>   -5.3757    1.0000 </r>
       <r>   -4.8536    1.0000 </r>
       <r>   -2.4791    1.0000 </r>
       <r>   -2.3330    1.0000 </r>
       <r>   -1.6697    1.0000 </r>
       <r>   -1.5050    1.0000 </r>
       <r>    1.4282    1.0000 </r>
       <r>    1.6044    1.0000 </r>
       <r>    1.6900    1.0000 </r>
       <r>    2.1674    1.0000 </r>
       <r>    2.2704    1.0000 </r>
       <r>    2.4449    1.0000 </r>
       <r>    3.4393    1.0000 </r>
       <r>    3.5720    1.0000 </r>
       <r>    4.0129    1.0000 </r>
       <r>    4.1331    1.0000 </r>
       <r>    6.7542    0.0000 </r>
       <r>    7.1016    0.0000 </r>
       <r>    8.3629    0.0000 </r>
       <r>    8.9373    0.0000 </r>
       <r>    9.0930    0.0000 </r>
       <r>    9.2384    0.0000 </r>
       <r>    9.7360    0.0000 </r>
       <r>    9.9162    0.0000 </r>
      </set>
      <set comment="kpoint 5">
       <r>   -5.3801    1.0000 </r>
       <r>   -4.8475    1.0000 </r>
       <r>   -2.4727    1.0000 </r>
       <r>   -2.3294    1.0000 </r>
       <r>   -1.6763    1.0000 </r>
       <r>   -1.5168    1.0000 </r>
       <r>    1.3701    1.0000 </r>
       <r>    1.6153    1.0000 </r>
       <r>    1.7045    1.0000 </r>
       <r>    2.1533    1.0000 </r>
       <r>    2.2509    1.0000 </r>
       <r>    2.5585    1.0000 </r>
       <r>    3.5302    1.0000 </r>
       <r>    3.5858    1.0000 </r>
       <r>    3.9538    1.0000 </r>
       <r>    4.0436    1.0000 </r>
       <r>    6.7349    0.0000 </r>
       <r>    7.1174    0.0000 </r>
       <r>    8.3457    0.0000 </r>
       <r>    8.8692    0.0000 </r>
       <r>    9.0046    0.0000 </r>
       <r>    9.2431    0.0000 </r>
       <r>    9.8477    0.0000 </r>
       <r>   10.0516    0.0000 </r>
      </set>
      <set comment="kpoint 6">
       <r>   -5.7718    1.0000 </r>
       <r>   -4.2127    1.0000 </r>
       <r>   -2.5365    1.0000 </r>
       <r>   -2.3806    1.0000 </r>
       <r>   -1.6934    1.0000 </r>
       <r>   -1.5342    1.0000 </r>
       <r>    0.3761    1.0000 </r>
       <r>    1.8203    1.0000 </r>
       <r>    1.9137    1.0000 </r>
       <r>    2.3420    1.0000 </r>
       <r>    2.4595    1.0000 </r>
       <r>    3.1256    1.0000 </r>
       <r>    3.2025    1.0000 </r>
       <r>    3.5528    1.0000 </r>
       <r>    4.5140    1.0000 </r>
       <r>    4.6218    1.0000 </r>
       <r>    6.4710    0.0000 </r>
       <r>    7.3745    0.0000 </r>
       <r>    7.5623    0.0000 </r>
       <r>    7.7800    0.0000 </r>
       <r>    7.8774    0.0000 </r>
       <r>    8.6251    0.0000 </r>
       <r>    8.7970    0.0000 </r>
       <r>    9.3278    0.0000 </r>
      </set>
      <set comment="kpoint 7">
       <r>   -6.0363    1.0000 </r>
       <r>   -3.4748    1.0000 </r>
       <r>   -2.6191    1.0000 </r>
       <r>   -2.4463    1.0000 </r>
       <r>   -1.7160    1.0000 </r>
       <r>   -1.5635    1.0000 </r>
       <r>   -0.6280    1.0000 </r>
       <r>    2.1852    1.0000 </r>
       <r>    2.2841    1.0000 </r>
       <r>    2.6153    1.0000 </r>
       <r>    2.7399    1.0000 </r>
       <r>    2.8653    1.0000 </r>
       <r>    2.9777    1.0000 </r>
       <r>    4.4458    1.0000 </r>
       <r>    5.0497    1.0000 </r>
       <r>    5.2336    1.0000 </r>
       <r>    6.3203    0.0000 </r>
       <r>    6.6512    0.0000 </r>
       <r>    6.8032    0.0000 </r>
       <r>    7.0893    0.0000 </r>
       <r>    7.5242    0.0000 </r>
       <r>    7.6394    0.0000 </r>
       <r>    8.0693    0.0000 </r>
       <r>    8.5711    0.0000 </r>
      </set>
      <set comment="kpoint 8">
       <r>   -6.1690    1.0000 </r>
       <r>   -2.7612    1.0000 </r>
       <r>   -2.6477    1.0000 </r>
       <r>   -2.4086    1.0000 </r>
       <r>   -1.7819    1.0000 </r>
       <r>   -1.6950    1.0000 </r>
       <r>   -1.4219    1.0000 </r>
       <r>    2.5629    1.0000 </r>
       <r>    2.6244    1.0000 </r>
       <r>    2.7526    1.0000 </r>
       <r>    2.7969    1.0000 </r>
       <r>    2.8605    1.0000 </r>
       <r>    2.8744    1.0000 </r>
       <r>    5.1960    1.0000 </r>
       <r>    5.3446    1.0000 </r>
       <r>    5.5959    1.0000 </r>
       <r>    6.1947    0.0000 </r>
       <r>    6.2970    0.0000 </r>
       <r>    6.4321    0.0000 </r>
       <r>    6.6497    0.0000 </r>
       <r>    6.8123    0.0000 </r>
       <r>    6.9047    0.0000 </r>
       <r>    8.1501    0.0000 </r>
       <r>    8.3120    0.0000 </r>
      </set>
      <set comment="kpoint 9">
       <r>   -6.0351    1.0000 </r>
       <r>   -3.4692    1.0000 </r>
       <r>   -2.6476    1.0000 </r>
       <r>   -2.4797    1.0000 </r>
       <r>   -1.6413    1.0000 </r>
       <r>   -1.5716    1.0000 </r>
       <r>   -0.5995    1.0000 </r>
       <r>    2.1181    1.0000 </r>
       <r>    2.2194    1.0000 </r>
       <r>    2.6967    1.0000 </r>
       <r>    2.7588    1.0000 </r>
       <r>    2.8216    1.0000 </r>
       <r>    2.9904    1.0000 </r>
       <r>    4.2665    1.0000 </r>
       <r>    5.0862    1.0000 </r>
       <r>    5.4068    1.0000 </r>
       <r>    6.3584    0.0000 </r>
       <r>    6.6966    0.0000 </r>
       <r>    6.9129    0.0000 </r>
       <r>    7.0769    0.0000 </r>
       <r>    7.4274    0.0000 </r>
       <r>    7.6131    0.0000 </r>
       <r>    8.0347    0.0000 </r>
       <r>    8.6069    0.0000 </r>
      </set>
      <set comment="kpoint 10">
       <r>   -5.9012    1.0000 </r>
       <r>   -3.5039    1.0000 </r>
       <r>   -3.2819    1.0000 </r>
       <r>   -2.4972    1.0000 </r>
       <r>   -1.6538    1.0000 </r>
       <r>   -0.7932    1.0000 </r>
       <r>   -0.4880    1.0000 </r>
       <r>    1.6782    1.0000 </r>
       <r>    2.2841    1.0000 </r>
       <r>    2.4182    1.0000 </r>
       <r>    2.7910    1.0000 </r>
       <r>    2.9235    1.0000 </r>
       <r>    3.1474    1.0000 </r>
       <r>    3.5069    1.0000 </r>
       <r>    4.7243    1.0000 </r>
       <r>    5.5977    1.0000 </r>
       <r>    6.7016    0.0000 </r>
       <r>    6.8106    0.0000 </r>
       <r>    6.9766    0.0000 </r>
       <r>    7.6944    0.0000 </r>
       <r>    7.8398    0.0000 </r>
       <r>    8.2764    0.0000 </r>
       <r>    8.4039    0.0000 </r>
       <r>    8.5778    0.0000 </r>
      </set>
      <set comment="kpoint 11">
       <r>   -5.6369    1.0000 </r>
       <r>   -4.1348    1.0000 </r>
       <r>   -3.2286    1.0000 </r>
       <r>   -2.5468    1.0000 </r>
       <r>   -1.5841    1.0000 </r>
       <r>   -0.7742    1.0000 </r>
       <r>    0.3188    1.0000 </r>
       <r>    1.4320    1.0000 </r>
       <r>    1.9359    1.0000 </r>
       <r>    2.5938    1.0000 </r>
       <r>    2.6766    1.0000 </r>
       <r>    2.7218    1.0000 </r>
       <r>    3.1046    1.0000 </r>
       <r>    3.2060    1.0000 </r>
       <r>    4.1738    1.0000 </r>
       <r>    5.2176    1.0000 </r>
       <r>    7.0491    0.0000 </r>
       <r>    7.2320    0.0000 </r>
       <r>    7.8398    0.0000 </r>
       <r>    8.1141    0.0000 </r>
       <r>    8.2951    0.0000 </r>
       <r>    8.7965    0.0000 </r>
       <r>    8.8800    0.0000 </r>
       <r>    9.5722    0.0000 </r>
      </set>
      <set comment="kpoint 12">
       <r>   -5.2472    1.0000 </r>
       <r>   -4.7479    1.0000 </r>
       <r>   -3.0503    1.0000 </r>
       <r>   -2.7053    1.0000 </r>
       <r>   -1.4112    1.0000 </r>
       <r>   -0.9487    1.0000 </r>
       <r>    1.1813    1.0000 </r>
       <r>    1.4362    1.0000 </r>
       <r>    1.6055    1.0000 </r>
       <r>    1.9183    1.0000 </r>
       <r>    2.5993    1.0000 </r>
       <r>    2.8959    1.0000 </r>
       <r>    3.1065    1.0000 </r>
       <r>    3.5675    1.0000 </r>
       <r>    3.7056    1.0000 </r>
       <r>    4.5353    1.0000 </r>
       <r>    7.3590    0.0000 </r>
       <r>    7.6538    0.0000 </r>
       <r>    8.3220    0.0000 </r>
       <r>    8.8730    0.0000 </r>
       <r>    9.0769    0.0000 </r>
       <r>    9.3386    0.0000 </r>
       <r>    9.4758    0.0000 </r>
       <r>   10.1289    0.0000 </r>
      </set>
      <set comment="kpoint 13">
       <r>   -5.2629    1.0000 </r>
       <r>   -4.7252    1.0000 </r>
       <r>   -2.9493    1.0000 </r>
       <r>   -2.8433    1.0000 </r>
       <r>   -1.1831    1.0000 </r>
       <r>   -1.1588    1.0000 </r>
       <r>    0.9845    1.0000 </r>
       <r>    1.4907    1.0000 </r>
       <r>    1.6230    1.0000 </r>
       <r>    2.1096    1.0000 </r>
       <r>    2.7276    1.0000 </r>
       <r>    2.7515    1.0000 </r>
       <r>    3.1490    1.0000 </r>
       <r>    3.5996    1.0000 </r>
       <r>    3.8520    1.0000 </r>
       <r>    4.2645    1.0000 </r>
       <r>    7.3105    0.0000 </r>
       <r>    7.7063    0.0000 </r>
       <r>    8.0982    0.0000 </r>
       <r>    8.9064    0.0000 </r>
       <r>    9.0631    0.0000 </r>
       <r>    9.4121    0.0000 </r>
       <r>    9.5771    0.0000 </r>
       <r>    9.9405    0.0000 </r>
      </set>
      <set comment="kpoint 14">
       <r>   -5.6474    1.0000 </r>
       <r>   -4.1014    1.0000 </r>
       <r>   -3.1609    1.0000 </r>
       <r>   -2.7019    1.0000 </r>
       <r>   -1.3650    1.0000 </r>
       <r>   -0.9474    1.0000 </r>
       <r>    0.1452    1.0000 </r>
       <r>    1.5278    1.0000 </r>
       <r>    1.9709    1.0000 </r>
       <r>    2.6392    1.0000 </r>
       <r>    2.8093    1.0000 </r>
       <r>    2.9215    1.0000 </r>
       <r>    2.9879    1.0000 </r>
       <r>    3.3029    1.0000 </r>
       <r>    4.1694    1.0000 </r>
       <r>    4.8893    1.0000 </r>
       <r>    6.9823    0.0000 </r>
       <r>    7.0870    0.0000 </r>
       <r>    7.7764    0.0000 </r>
       <r>    8.1673    0.0000 </r>
       <r>    8.2864    0.0000 </r>
       <r>    8.7473    0.0000 </r>
       <r>    8.8972    0.0000 </r>
       <r>    9.5549    0.0000 </r>
      </set>
      <set comment="kpoint 15">
       <r>   -5.9072    1.0000 </r>
       <r>   -3.4307    1.0000 </r>
       <r>   -3.2837    1.0000 </r>
       <r>   -2.5991    1.0000 </r>
       <r>   -1.5209    1.0000 </r>
       <r>   -0.8349    1.0000 </r>
       <r>   -0.6727    1.0000 </r>
       <r>    1.7992    1.0000 </r>
       <r>    2.3522    1.0000 </r>
       <r>    2.4338    1.0000 </r>
       <r>    2.8898    1.0000 </r>
       <r>    2.9563    1.0000 </r>
       <r>    2.9979    1.0000 </r>
       <r>    3.7417    1.0000 </r>
       <r>    4.7416    1.0000 </r>
       <r>    5.2419    1.0000 </r>
       <r>    6.5200    0.0000 </r>
       <r>    6.7971    0.0000 </r>
       <r>    6.9267    0.0000 </r>
       <r>    7.6493    0.0000 </r>
       <r>    7.8910    0.0000 </r>
       <r>    8.2188    0.0000 </r>
       <r>    8.5924    0.0000 </r>
       <r>    8.6623    0.0000 </r>
      </set>
      <set comment="kpoint 16">
       <r>   -6.0371    1.0000 </r>
       <r>   -3.4508    1.0000 </r>
       <r>   -2.6889    1.0000 </r>
       <r>   -2.4136    1.0000 </r>
       <r>   -1.7427    1.0000 </r>
       <r>   -1.5064    1.0000 </r>
       <r>   -0.6500    1.0000 </r>
       <r>    2.1790    1.0000 </r>
       <r>    2.3220    1.0000 </r>
       <r>    2.6235    1.0000 </r>
       <r>    2.7420    1.0000 </r>
       <r>    2.8219    1.0000 </r>
       <r>    2.9846    1.0000 </r>
       <r>    4.4758    1.0000 </r>
       <r>    5.0594    1.0000 </r>
       <r>    5.1800    1.0000 </r>
       <r>    6.3477    0.0000 </r>
       <r>    6.6234    0.0000 </r>
       <r>    6.8271    0.0000 </r>
       <r>    7.0514    0.0000 </r>
       <r>    7.5059    0.0000 </r>
       <r>    7.6967    0.0000 </r>
       <r>    8.0413    0.0000 </r>
       <r>    8.5957    0.0000 </r>
      </set>
      <set comment="kpoint 17">
       <r>   -5.7714    1.0000 </r>
       <r>   -4.2065    1.0000 </r>
       <r>   -2.5837    1.0000 </r>
       <r>   -2.3929    1.0000 </r>
       <r>   -1.6482    1.0000 </r>
       <r>   -1.5127    1.0000 </r>
       <r>    0.4262    1.0000 </r>
       <r>    1.7704    1.0000 </r>
       <r>    1.8571    1.0000 </r>
       <r>    2.3932    1.0000 </r>
       <r>    2.5291    1.0000 </r>
       <r>    2.9698    1.0000 </r>
       <r>    3.2179    1.0000 </r>
       <r>    3.4397    1.0000 </r>
       <r>    4.5480    1.0000 </r>
       <r>    4.7659    1.0000 </r>
       <r>    6.4958    0.0000 </r>
       <r>    7.3811    0.0000 </r>
       <r>    7.6668    0.0000 </r>
       <r>    7.8057    0.0000 </r>
       <r>    7.8742    0.0000 </r>
       <r>    8.5587    0.0000 </r>
       <r>    8.7251    0.0000 </r>
       <r>    9.3488    0.0000 </r>
      </set>
      <set comment="kpoint 18">
       <r>   -5.6389    1.0000 </r>
       <r>   -4.1197    1.0000 </r>
       <r>   -3.2494    1.0000 </r>
       <r>   -2.5443    1.0000 </r>
       <r>   -1.5845    1.0000 </r>
       <r>   -0.7641    1.0000 </r>
       <r>    0.3138    1.0000 </r>
       <r>    1.4313    1.0000 </r>
       <r>    1.9652    1.0000 </r>
       <r>    2.5012    1.0000 </r>
       <r>    2.6484    1.0000 </r>
       <r>    2.8229    1.0000 </r>
       <r>    3.1273    1.0000 </r>
       <r>    3.1783    1.0000 </r>
       <r>    4.1690    1.0000 </r>
       <r>    5.2160    1.0000 </r>
       <r>    7.0715    0.0000 </r>
       <r>    7.2263    0.0000 </r>
       <r>    7.8188    0.0000 </r>
       <r>    8.0868    0.0000 </r>
       <r>    8.2864    0.0000 </r>
       <r>    8.8311    0.0000 </r>
       <r>    8.9238    0.0000 </r>
       <r>    9.5287    0.0000 </r>
      </set>
      <set comment="kpoint 19">
       <r>   -5.3795    1.0000 </r>
       <r>   -4.0370    1.0000 </r>
       <r>   -3.8134    1.0000 </r>
       <r>   -2.8381    1.0000 </r>
       <r>   -1.3577    1.0000 </r>
       <r>   -0.1657    1.0000 </r>
       <r>    0.1723    1.0000 </r>
       <r>    1.3339    1.0000 </r>
       <r>    1.8376    1.0000 </r>
       <r>    2.2089    1.0000 </r>
       <r>    2.2932    1.0000 </r>
       <r>    3.0589    1.0000 </r>
       <r>    3.2386    1.0000 </r>
       <r>    3.5111    1.0000 </r>
       <r>    3.6769    1.0000 </r>
       <r>    5.2922    1.0000 </r>
       <r>    7.1885    0.0000 </r>
       <r>    7.9336    0.0000 </r>
       <r>    8.1632    0.0000 </r>
       <r>    8.5007    0.0000 </r>
       <r>    8.8431    0.0000 </r>
       <r>    9.2383    0.0000 </r>
       <r>    9.3452    0.0000 </r>
       <r>    9.4090    0.0000 </r>
      </set>
      <set comment="kpoint 20">
       <r>   -4.9993    1.0000 </r>
       <r>   -4.5372    1.0000 </r>
       <r>   -3.6355    1.0000 </r>
       <r>   -3.1973    1.0000 </r>
       <r>   -1.0293    1.0000 </r>
       <r>   -0.4016    1.0000 </r>
       <r>    0.7378    1.0000 </r>
       <r>    1.1600    1.0000 </r>
       <r>    1.4702    1.0000 </r>
       <r>    1.8318    1.0000 </r>
       <r>    2.5737    1.0000 </r>
       <r>    3.0085    1.0000 </r>
       <r>    3.2997    1.0000 </r>
       <r>    3.6174    1.0000 </r>
       <r>    3.8807    1.0000 </r>
       <r>    4.8342    1.0000 </r>
       <r>    7.7669    0.0000 </r>
       <r>    8.3012    0.0000 </r>
       <r>    8.5960    0.0000 </r>
       <r>    8.7086    0.0000 </r>
       <r>    8.9049    0.0000 </r>
       <r>    9.2751    0.0000 </r>
       <r>    9.3151    0.0000 </r>
       <r>    9.8729    0.0000 </r>
      </set>
      <set comment="kpoint 21">
       <r>   -5.0278    1.0000 </r>
       <r>   -4.4944    1.0000 </r>
       <r>   -3.5598    1.0000 </r>
       <r>   -3.3116    1.0000 </r>
       <r>   -0.7674    1.0000 </r>
       <r>   -0.6417    1.0000 </r>
       <r>    0.4783    1.0000 </r>
       <r>    1.3561    1.0000 </r>
       <r>    1.5926    1.0000 </r>
       <r>    1.7985    1.0000 </r>
       <r>    2.5702    1.0000 </r>
       <r>    3.0302    1.0000 </r>
       <r>    3.4280    1.0000 </r>
       <r>    3.4917    1.0000 </r>
       <r>    4.1147    1.0000 </r>
       <r>    4.5414    1.0000 </r>
       <r>    7.5874    0.0000 </r>
       <r>    8.2363    0.0000 </r>
       <r>    8.5809    0.0000 </r>
       <r>    8.8248    0.0000 </r>
       <r>    8.9218    0.0000 </r>
       <r>    9.2179    0.0000 </r>
       <r>    9.4988    0.0000 </r>
       <r>    9.8770    0.0000 </r>
      </set>
      <set comment="kpoint 22">
       <r>   -5.3984    1.0000 </r>
       <r>   -3.9539    1.0000 </r>
       <r>   -3.7916    1.0000 </r>
       <r>   -2.9895    1.0000 </r>
       <r>   -1.0967    1.0000 </r>
       <r>   -0.2959    1.0000 </r>
       <r>   -0.1478    1.0000 </r>
       <r>    1.3869    1.0000 </r>
       <r>    2.1265    1.0000 </r>
       <r>    2.2198    1.0000 </r>
       <r>    2.2805    1.0000 </r>
       <r>    3.2539    1.0000 </r>
       <r>    3.3742    1.0000 </r>
       <r>    3.4470    1.0000 </r>
       <r>    3.6151    1.0000 </r>
       <r>    4.9635    1.0000 </r>
       <r>    6.9949    0.0000 </r>
       <r>    7.9372    0.0000 </r>
       <r>    8.0630    0.0000 </r>
       <r>    8.3963    0.0000 </r>
       <r>    9.0130    0.0000 </r>
       <r>    9.1320    0.0000 </r>
       <r>    9.3500    0.0000 </r>
       <r>    9.4095    0.0000 </r>
      </set>
      <set comment="kpoint 23">
       <r>   -5.6497    1.0000 </r>
       <r>   -4.0822    1.0000 </r>
       <r>   -3.1943    1.0000 </r>
       <r>   -2.6937    1.0000 </r>
       <r>   -1.3692    1.0000 </r>
       <r>   -0.9193    1.0000 </r>
       <r>    0.1267    1.0000 </r>
       <r>    1.5214    1.0000 </r>
       <r>    1.9814    1.0000 </r>
       <r>    2.6462    1.0000 </r>
       <r>    2.8064    1.0000 </r>
       <r>    2.9314    1.0000 </r>
       <r>    2.9781    1.0000 </r>
       <r>    3.3034    1.0000 </r>
       <r>    4.1583    1.0000 </r>
       <r>    4.8911    1.0000 </r>
       <r>    7.0306    0.0000 </r>
       <r>    7.0591    0.0000 </r>
       <r>    7.7917    0.0000 </r>
       <r>    8.0684    0.0000 </r>
       <r>    8.3169    0.0000 </r>
       <r>    8.7856    0.0000 </r>
       <r>    8.9088    0.0000 </r>
       <r>    9.5242    0.0000 </r>
      </set>
      <set comment="kpoint 24">
       <r>   -5.7748    1.0000 </r>
       <r>   -4.1950    1.0000 </r>
       <r>   -2.5942    1.0000 </r>
       <r>   -2.3669    1.0000 </r>
       <r>   -1.6839    1.0000 </r>
       <r>   -1.5070    1.0000 </r>
       <r>    0.3591    1.0000 </r>
       <r>    1.8151    1.0000 </r>
       <r>    1.9375    1.0000 </r>
       <r>    2.3505    1.0000 </r>
       <r>    2.4700    1.0000 </r>
       <r>    3.0862    1.0000 </r>
       <r>    3.1967    1.0000 </r>
       <r>    3.5930    1.0000 </r>
       <r>    4.4981    1.0000 </r>
       <r>    4.6044    1.0000 </r>
       <r>    6.4827    0.0000 </r>
       <r>    7.3814    0.0000 </r>
       <r>    7.6172    0.0000 </r>
       <r>    7.7343    0.0000 </r>
       <r>    7.8268    0.0000 </r>
       <r>    8.5965    0.0000 </r>
       <r>    8.8521    0.0000 </r>
       <r>    9.3401    0.0000 </r>
      </set>
      <set comment="kpoint 25">
       <r>   -5.3898    1.0000 </r>
       <r>   -4.8288    1.0000 </r>
       <r>   -2.5330    1.0000 </r>
       <r>   -2.3133    1.0000 </r>
       <r>   -1.6720    1.0000 </r>
       <r>   -1.4788    1.0000 </r>
       <r>    1.4513    1.0000 </r>
       <r>    1.5968    1.0000 </r>
       <r>    1.6895    1.0000 </r>
       <r>    2.1551    1.0000 </r>
       <r>    2.2885    1.0000 </r>
       <r>    2.4338    1.0000 </r>
       <r>    3.4297    1.0000 </r>
       <r>    3.5582    1.0000 </r>
       <r>    4.0260    1.0000 </r>
       <r>    4.1261    1.0000 </r>
       <r>    6.7539    0.0000 </r>
       <r>    7.1121    0.0000 </r>
       <r>    8.3829    0.0000 </r>
       <r>    8.9067    0.0000 </r>
       <r>    9.0651    0.0000 </r>
       <r>    9.2621    0.0000 </r>
       <r>    9.7747    0.0000 </r>
       <r>    9.9169    0.0000 </r>
      </set>
      <set comment="kpoint 26">
       <r>   -5.2611    1.0000 </r>
       <r>   -4.7217    1.0000 </r>
       <r>   -3.0829    1.0000 </r>
       <r>   -2.6941    1.0000 </r>
       <r>   -1.4134    1.0000 </r>
       <r>   -0.9328    1.0000 </r>
       <r>    1.1948    1.0000 </r>
       <r>    1.4231    1.0000 </r>
       <r>    1.6511    1.0000 </r>
       <r>    1.8506    1.0000 </r>
       <r>    2.6047    1.0000 </r>
       <r>    2.9341    1.0000 </r>
       <r>    3.1005    1.0000 </r>
       <r>    3.5206    1.0000 </r>
       <r>    3.7211    1.0000 </r>
       <r>    4.5418    1.0000 </r>
       <r>    7.3642    0.0000 </r>
       <r>    7.6778    0.0000 </r>
       <r>    8.2985    0.0000 </r>
       <r>    8.8682    0.0000 </r>
       <r>    9.0626    0.0000 </r>
       <r>    9.3900    0.0000 </r>
       <r>    9.4638    0.0000 </r>
       <r>   10.0945    0.0000 </r>
      </set>
      <set comment="kpoint 27">
       <r>   -5.0117    1.0000 </r>
       <r>   -4.5085    1.0000 </r>
       <r>   -3.6639    1.0000 </r>
       <r>   -3.1884    1.0000 </r>
       <r>   -1.0306    1.0000 </r>
       <r>   -0.3900    1.0000 </r>
       <r>    0.7348    1.0000 </r>
       <r>    1.1729    1.0000 </r>
       <r>    1.4655    1.0000 </r>
       <r>    1.8038    1.0000 </r>
       <r>    2.5887    1.0000 </r>
       <r>    3.0217    1.0000 </r>
       <r>    3.2782    1.0000 </r>
       <r>    3.6374    1.0000 </r>
       <r>    3.8639    1.0000 </r>
       <r>    4.8383    1.0000 </r>
       <r>    7.7818    0.0000 </r>
       <r>    8.3149    0.0000 </r>
       <r>    8.5544    0.0000 </r>
       <r>    8.6830    0.0000 </r>
       <r>    8.9596    0.0000 </r>
       <r>    9.2190    0.0000 </r>
       <r>    9.3916    0.0000 </r>
       <r>    9.8219    0.0000 </r>
      </set>
      <set comment="kpoint 28">
       <r>   -4.6512    1.0000 </r>
       <r>   -4.3041    1.0000 </r>
       <r>   -4.0863    1.0000 </r>
       <r>   -3.6703    1.0000 </r>
       <r>   -0.5878    1.0000 </r>
       <r>    0.0204    1.0000 </r>
       <r>    0.3609    1.0000 </r>
       <r>    0.5483    1.0000 </r>
       <r>    1.6967    1.0000 </r>
       <r>    2.0354    1.0000 </r>
       <r>    2.1567    1.0000 </r>
       <r>    2.5161    1.0000 </r>
       <r>    3.8864    1.0000 </r>
       <r>    4.0806    1.0000 </r>
       <r>    4.1406    1.0000 </r>
       <r>    4.7836    1.0000 </r>
       <r>    7.7951    0.0000 </r>
       <r>    8.1646    0.0000 </r>
       <r>    8.2929    0.0000 </r>
       <r>    8.3965    0.0000 </r>
       <r>    9.4033    0.0000 </r>
       <r>    9.6005    0.0000 </r>
       <r>    9.7507    0.0000 </r>
       <r>   10.0369    0.0000 </r>
      </set>
      <set comment="kpoint 29">
       <r>   -4.6924    1.0000 </r>
       <r>   -4.2247    1.0000 </r>
       <r>   -4.0602    1.0000 </r>
       <r>   -3.7439    1.0000 </r>
       <r>   -0.3350    1.0000 </r>
       <r>   -0.1446    1.0000 </r>
       <r>    0.0082    1.0000 </r>
       <r>    0.8151    1.0000 </r>
       <r>    1.7235    1.0000 </r>
       <r>    2.0312    1.0000 </r>
       <r>    2.1442    1.0000 </r>
       <r>    2.5175    1.0000 </r>
       <r>    3.8858    1.0000 </r>
       <r>    4.1157    1.0000 </r>
       <r>    4.3682    1.0000 </r>
       <r>    4.5107    1.0000 </r>
       <r>    7.6072    0.0000 </r>
       <r>    8.2024    0.0000 </r>
       <r>    8.3132    0.0000 </r>
       <r>    8.5354    0.0000 </r>
       <r>    9.4024    0.0000 </r>
       <r>    9.5519    0.0000 </r>
       <r>    9.8488    0.0000 </r>
       <r>    9.9398    0.0000 </r>
      </set>
      <set comment="kpoint 30">
       <r>   -5.0384    1.0000 </r>
       <r>   -4.4650    1.0000 </r>
       <r>   -3.6024    1.0000 </r>
       <r>   -3.2940    1.0000 </r>
       <r>   -0.7670    1.0000 </r>
       <r>   -0.6154    1.0000 </r>
       <r>    0.4590    1.0000 </r>
       <r>    1.3581    1.0000 </r>
       <r>    1.5902    1.0000 </r>
       <r>    1.7796    1.0000 </r>
       <r>    2.5876    1.0000 </r>
       <r>    3.0282    1.0000 </r>
       <r>    3.4137    1.0000 </r>
       <r>    3.5082    1.0000 </r>
       <r>    4.1071    1.0000 </r>
       <r>    4.5492    1.0000 </r>
       <r>    7.5958    0.0000 </r>
       <r>    8.2532    0.0000 </r>
       <r>    8.5477    0.0000 </r>
       <r>    8.8778    0.0000 </r>
       <r>    8.9148    0.0000 </r>
       <r>    9.1681    0.0000 </r>
       <r>    9.5147    0.0000 </r>
       <r>    9.8423    0.0000 </r>
      </set>
      <set comment="kpoint 31">
       <r>   -5.2762    1.0000 </r>
       <r>   -4.6981    1.0000 </r>
       <r>   -3.0106    1.0000 </r>
       <r>   -2.8126    1.0000 </r>
       <r>   -1.1690    1.0000 </r>
       <r>   -1.1415    1.0000 </r>
       <r>    0.9745    1.0000 </r>
       <r>    1.4646    1.0000 </r>
       <r>    1.6314    1.0000 </r>
       <r>    2.1071    1.0000 </r>
       <r>    2.7418    1.0000 </r>
       <r>    2.7857    1.0000 </r>
       <r>    3.1309    1.0000 </r>
       <r>    3.5548    1.0000 </r>
       <r>    3.8589    1.0000 </r>
       <r>    4.2851    1.0000 </r>
       <r>    7.3236    0.0000 </r>
       <r>    7.7383    0.0000 </r>
       <r>    8.0797    0.0000 </r>
       <r>    8.8777    0.0000 </r>
       <r>    9.0447    0.0000 </r>
       <r>    9.4273    0.0000 </r>
       <r>    9.5708    0.0000 </r>
       <r>    9.9146    0.0000 </r>
      </set>
      <set comment="kpoint 32">
       <r>   -5.3947    1.0000 </r>
       <r>   -4.8213    1.0000 </r>
       <r>   -2.5211    1.0000 </r>
       <r>   -2.3348    1.0000 </r>
       <r>   -1.6289    1.0000 </r>
       <r>   -1.5172    1.0000 </r>
       <r>    1.3637    1.0000 </r>
       <r>    1.6211    1.0000 </r>
       <r>    1.6854    1.0000 </r>
       <r>    2.1813    1.0000 </r>
       <r>    2.2586    1.0000 </r>
       <r>    2.5630    1.0000 </r>
       <r>    3.4916    1.0000 </r>
       <r>    3.5801    1.0000 </r>
       <r>    3.9270    1.0000 </r>
       <r>    4.0823    1.0000 </r>
       <r>    6.7374    0.0000 </r>
       <r>    7.1323    0.0000 </r>
       <r>    8.3698    0.0000 </r>
       <r>    8.7871    0.0000 </r>
       <r>    9.0205    0.0000 </r>
       <r>    9.2640    0.0000 </r>
       <r>    9.8202    0.0000 </r>
       <r>   10.1091    0.0000 </r>
      </set>
      <set comment="kpoint 33">
       <r>   -5.3937    1.0000 </r>
       <r>   -4.8228    1.0000 </r>
       <r>   -2.5313    1.0000 </r>
       <r>   -2.3104    1.0000 </r>
       <r>   -1.6845    1.0000 </r>
       <r>   -1.4761    1.0000 </r>
       <r>    1.3871    1.0000 </r>
       <r>    1.6180    1.0000 </r>
       <r>    1.6885    1.0000 </r>
       <r>    2.1560    1.0000 </r>
       <r>    2.2850    1.0000 </r>
       <r>    2.5283    1.0000 </r>
       <r>    3.4752    1.0000 </r>
       <r>    3.5673    1.0000 </r>
       <r>    3.9636    1.0000 </r>
       <r>    4.0856    1.0000 </r>
       <r>    6.7383    0.0000 </r>
       <r>    7.1332    0.0000 </r>
       <r>    8.3680    0.0000 </r>
       <r>    8.8410    0.0000 </r>
       <r>    8.9897    0.0000 </r>
       <r>    9.2607    0.0000 </r>
       <r>    9.8507    0.0000 </r>
       <r>   10.0432    0.0000 </r>
      </set>
      <set comment="kpoint 34">
       <r>   -5.2754    1.0000 </r>
       <r>   -4.7001    1.0000 </r>
       <r>   -2.9998    1.0000 </r>
       <r>   -2.8201    1.0000 </r>
       <r>   -1.1822    1.0000 </r>
       <r>   -1.1376    1.0000 </r>
       <r>    0.9978    1.0000 </r>
       <r>    1.4845    1.0000 </r>
       <r>    1.6262    1.0000 </r>
       <r>    2.0741    1.0000 </r>
       <r>    2.7368    1.0000 </r>
       <r>    2.7916    1.0000 </r>
       <r>    3.0965    1.0000 </r>
       <r>    3.5808    1.0000 </r>
       <r>    3.8881    1.0000 </r>
       <r>    4.2622    1.0000 </r>
       <r>    7.3124    0.0000 </r>
       <r>    7.7562    0.0000 </r>
       <r>    8.0797    0.0000 </r>
       <r>    8.8626    0.0000 </r>
       <r>    9.0900    0.0000 </r>
       <r>    9.4110    0.0000 </r>
       <r>    9.5787    0.0000 </r>
       <r>    9.9312    0.0000 </r>
      </set>
      <set comment="kpoint 35">
       <r>   -5.0377    1.0000 </r>
       <r>   -4.4677    1.0000 </r>
       <r>   -3.5948    1.0000 </r>
       <r>   -3.2994    1.0000 </r>
       <r>   -0.7593    1.0000 </r>
       <r>   -0.6348    1.0000 </r>
       <r>    0.4822    1.0000 </r>
       <r>    1.3892    1.0000 </r>
       <r>    1.5465    1.0000 </r>
       <r>    1.7829    1.0000 </r>
       <r>    2.5657    1.0000 </r>
       <r>    3.0508    1.0000 </r>
       <r>    3.4098    1.0000 </r>
       <r>    3.5014    1.0000 </r>
       <r>    4.1253    1.0000 </r>
       <r>    4.5356    1.0000 </r>
       <r>    7.5960    0.0000 </r>
       <r>    8.2405    0.0000 </r>
       <r>    8.5911    0.0000 </r>
       <r>    8.8393    0.0000 </r>
       <r>    8.9026    0.0000 </r>
       <r>    9.1830    0.0000 </r>
       <r>    9.5971    0.0000 </r>
       <r>    9.7952    0.0000 </r>
      </set>
      <set comment="kpoint 36">
       <r>   -4.6916    1.0000 </r>
       <r>   -4.2235    1.0000 </r>
       <r>   -4.0611    1.0000 </r>
       <r>   -3.7466    1.0000 </r>
       <r>   -0.3312    1.0000 </r>
       <r>   -0.1393    1.0000 </r>
       <r>    0.0104    1.0000 </r>
       <r>    0.8130    1.0000 </r>
       <r>    1.7075    1.0000 </r>
       <r>    2.0191    1.0000 </r>
       <r>    2.1473    1.0000 </r>
       <r>    2.5313    1.0000 </r>
       <r>    3.8894    1.0000 </r>
       <r>    4.1081    1.0000 </r>
       <r>    4.3812    1.0000 </r>
       <r>    4.5049    1.0000 </r>
       <r>    7.6046    0.0000 </r>
       <r>    8.2062    0.0000 </r>
       <r>    8.3337    0.0000 </r>
       <r>    8.4964    0.0000 </r>
       <r>    9.4587    0.0000 </r>
       <r>    9.5782    0.0000 </r>
       <r>    9.8680    0.0000 </r>
       <r>    9.9088    0.0000 </r>
      </set>
      <set comment="kpoint 37">
       <r>   -4.6482    1.0000 </r>
       <r>   -4.3040    1.0000 </r>
       <r>   -4.0877    1.0000 </r>
       <r>   -3.6759    1.0000 </r>
       <r>   -0.5629    1.0000 </r>
       <r>    0.0219    1.0000 </r>
       <r>    0.3639    1.0000 </r>
       <r>    0.5265    1.0000 </r>
       <r>    1.6764    1.0000 </r>
       <r>    2.0302    1.0000 </r>
       <r>    2.1504    1.0000 </r>
       <r>    2.5336    1.0000 </r>
       <r>    3.8951    1.0000 </r>
       <r>    4.0895    1.0000 </r>
       <r>    4.1391    1.0000 </r>
       <r>    4.7797    1.0000 </r>
       <r>    7.7960    0.0000 </r>
       <r>    8.1559    0.0000 </r>
       <r>    8.2931    0.0000 </r>
       <r>    8.3975    0.0000 </r>
       <r>    9.4101    0.0000 </r>
       <r>    9.6184    0.0000 </r>
       <r>    9.8147    0.0000 </r>
       <r>   10.0347    0.0000 </r>
      </set>
      <set comment="kpoint 38">
       <r>   -5.0095    1.0000 </r>
       <r>   -4.5100    1.0000 </r>
       <r>   -3.6622    1.0000 </r>
       <r>   -3.1985    1.0000 </r>
       <r>   -1.0017    1.0000 </r>
       <r>   -0.3958    1.0000 </r>
       <r>    0.7425    1.0000 </r>
       <r>    1.1475    1.0000 </r>
       <r>    1.4500    1.0000 </r>
       <r>    1.8093    1.0000 </r>
       <r>    2.5570    1.0000 </r>
       <r>    3.0441    1.0000 </r>
       <r>    3.2868    1.0000 </r>
       <r>    3.6364    1.0000 </r>
       <r>    3.8884    1.0000 </r>
       <r>    4.8293    1.0000 </r>
       <r>    7.7750    0.0000 </r>
       <r>    8.3158    0.0000 </r>
       <r>    8.6205    0.0000 </r>
       <r>    8.6915    0.0000 </r>
       <r>    8.8959    0.0000 </r>
       <r>    9.2062    0.0000 </r>
       <r>    9.4199    0.0000 </r>
       <r>    9.8491    0.0000 </r>
[...]
       <r>   -4.0327    1.0000 </r>
       <r>   -3.7394    1.0000 </r>
       <r>   -0.4012    1.0000 </r>
       <r>   -0.1127    1.0000 </r>
       <r>    0.2730    1.0000 </r>
       <r>    0.6038    1.0000 </r>
       <r>    1.6569    1.0000 </r>
       <r>    1.9992    1.0000 </r>
       <r>    2.1488    1.0000 </r>
       <r>    2.5497    1.0000 </r>
       <r>    3.9505    1.0000 </r>
       <r>    4.0777    1.0000 </r>
       <r>    4.2749    1.0000 </r>
       <r>    4.6466    1.0000 </r>
       <r>    7.6872    0.0000 </r>
       <r>    8.1842    0.0000 </r>
       <r>    8.3038    0.0000 </r>
       <r>    8.4229    0.0000 </r>
       <r>    9.4234    0.0000 </r>
       <r>    9.6706    0.0000 </r>
       <r>    9.8919    0.0000 </r>
       <r>   10.0220    0.0000 </r>
      </set>
      <set comment="kpoint 254">
       <r>   -5.0137    1.0000 </r>
       <r>   -4.5009    1.0000 </r>
       <r>   -3.6170    1.0000 </r>
       <r>   -3.2793    1.0000 </r>
       <r>   -0.8396    1.0000 </r>
       <r>   -0.4855    1.0000 </r>
       <r>    0.6202    1.0000 </r>
       <r>    1.2131    1.0000 </r>
       <r>    1.4602    1.0000 </r>
       <r>    1.7523    1.0000 </r>
       <r>    2.5637    1.0000 </r>
       <r>    3.0437    1.0000 </r>
       <r>    3.3876    1.0000 </r>
       <r>    3.5848    1.0000 </r>
       <r>    4.0262    1.0000 </r>
       <r>    4.6990    1.0000 </r>
       <r>    7.6737    0.0000 </r>
       <r>    8.3182    0.0000 </r>
       <r>    8.6194    0.0000 </r>
       <r>    8.7330    0.0000 </r>
       <r>    8.9344    0.0000 </r>
       <r>    9.3186    0.0000 </r>
       <r>    9.4221    0.0000 </r>
       <r>    9.7715    0.0000 </r>
      </set>
      <set comment="kpoint 255">
       <r>   -5.2601    1.0000 </r>
       <r>   -4.7204    1.0000 </r>
       <r>   -3.0244    1.0000 </r>
       <r>   -2.8114    1.0000 </r>
       <r>   -1.2320    1.0000 </r>
       <r>   -1.0208    1.0000 </r>
       <r>    1.1061    1.0000 </r>
       <r>    1.3970    1.0000 </r>
       <r>    1.5962    1.0000 </r>
       <r>    1.9293    1.0000 </r>
       <r>    2.7170    1.0000 </r>
       <r>    2.8705    1.0000 </r>
       <r>    3.0494    1.0000 </r>
       <r>    3.5525    1.0000 </r>
       <r>    3.8619    1.0000 </r>
       <r>    4.4195    1.0000 </r>
       <r>    7.3823    0.0000 </r>
       <r>    7.7357    0.0000 </r>
       <r>    8.2069    0.0000 </r>
       <r>    8.8290    0.0000 </r>
       <r>    9.1444    0.0000 </r>
       <r>    9.3530    0.0000 </r>
       <r>    9.4592    0.0000 </r>
       <r>    9.9429    0.0000 </r>
      </set>
      <set comment="kpoint 256">
       <r>   -5.3858    1.0000 </r>
       <r>   -4.8348    1.0000 </r>
       <r>   -2.4768    1.0000 </r>
       <r>   -2.3934    1.0000 </r>
       <r>   -1.6132    1.0000 </r>
       <r>   -1.5043    1.0000 </r>
       <r>    1.4303    1.0000 </r>
       <r>    1.5857    1.0000 </r>
       <r>    1.6560    1.0000 </r>
       <r>    2.2224    1.0000 </r>
       <r>    2.2899    1.0000 </r>
       <r>    2.4573    1.0000 </r>
       <r>    3.3507    1.0000 </r>
       <r>    3.6323    1.0000 </r>
       <r>    3.9478    1.0000 </r>
       <r>    4.1648    1.0000 </r>
       <r>    6.7708    0.0000 </r>
       <r>    7.1372    0.0000 </r>
       <r>    8.3582    0.0000 </r>
       <r>    8.8835    0.0000 </r>
       <r>    9.0698    0.0000 </r>
       <r>    9.2507    0.0000 </r>
       <r>    9.7032    0.0000 </r>
       <r>    9.9385    0.0000 </r>
      </set>
     </set>
    </set>
   </array>
  </eigenvalues>
  <separator name="orbital magnetization" >
   <v name="MAGDIPOLOUT">      0.00000000      0.00000000      0.00000000</v>
  </separator>
  <dos>
   <i name="efermi">      5.78384653 </i>
   <total>
    <array>
     <dimension dim="1">gridpoints</dimension>
     <dimension dim="2">spin</dimension>
     <field>energy</field>
     <field>total</field>
     <field>integrated</field>
     <set>
      <set comment="spin 1">
       <r>    -6.9860     0.0000     0.0000 </r>
       <r>    -6.9261     0.0000     0.0000 </r>
       <r>    -6.8662     0.0000     0.0000 </r>
       <r>    -6.8063     0.0000     0.0000 </r>
       <r>    -6.7464     0.0000     0.0000 </r>
       <r>    -6.6865     0.0000     0.0000 </r>
       <r>    -6.6265     0.0000     0.0000 </r>
       <r>    -6.5666     0.0000     0.0000 </r>
       <r>    -6.5067     0.0000     0.0000 </r>
       <r>    -6.4468     0.0000     0.0000 </r>
       <r>    -6.3869     0.0000     0.0000 </r>
       <r>    -6.3270     0.0000     0.0000 </r>
       <r>    -6.2670     0.0000     0.0000 </r>
       <r>    -6.2071     0.0000     0.0000 </r>
       <r>    -6.1472     0.5192     0.0311 </r>
       <r>    -6.0873     0.0000     0.0313 </r>
       <r>    -6.0274     1.6271     0.1287 </r>
       <r>    -5.9675    -0.0625     0.1250 </r>
       <r>    -5.9075     0.3021     0.1431 </r>
       <r>    -5.8476     1.2626     0.2187 </r>
       <r>    -5.7877    -0.0243     0.2173 </r>
       <r>    -5.7278     2.1105     0.3437 </r>
       <r>    -5.6679     0.0074     0.3442 </r>
       <r>    -5.6079     3.1215     0.5312 </r>
       <r>    -5.5480     0.0013     0.5313 </r>
       <r>    -5.4881     1.5609     0.6249 </r>
       <r>    -5.4282     0.0007     0.6250 </r>
       <r>    -5.3683     3.1488     0.8137 </r>
       <r>    -5.3084    -0.0236     0.8125 </r>
       <r>    -5.2484     4.5079     1.0826 </r>
       <r>    -5.1885     0.1839     1.0938 </r>
       <r>    -5.1286     1.3981     1.1775 </r>
       <r>    -5.0687     0.1661     1.1875 </r>
       <r>    -5.0088     3.1755     1.3778 </r>
       <r>    -4.9489     0.4760     1.4064 </r>
       <r>    -4.8889     2.8547     1.5774 </r>
       <r>    -4.8290     1.4138     1.6622 </r>
       <r>    -4.7691     0.4231     1.6876 </r>
       <r>    -4.7092     3.0320     1.8693 </r>
       <r>    -4.6493     3.0983     2.0549 </r>
       <r>    -4.5894     2.0493     2.1778 </r>
       <r>    -4.5294     1.4855     2.2669 </r>
       <r>    -4.4695     2.6467     2.4255 </r>
       <r>    -4.4096     2.3908     2.5689 </r>
       <r>    -4.3497     2.4982     2.7186 </r>
       <r>    -4.2898     0.5332     2.7506 </r>
       <r>    -4.2298     1.4392     2.8369 </r>
       <r>    -4.1699     3.8141     3.0655 </r>
       <r>    -4.1100     2.9417     3.2418 </r>
       <r>    -4.0501     4.0504     3.4845 </r>
       <r>    -3.9902     4.1273     3.7318 </r>
       <r>    -3.9303     3.0017     3.9117 </r>
       <r>    -3.8703     2.3516     4.0527 </r>
       <r>    -3.8104     1.4404     4.1391 </r>
       <r>    -3.7505     2.8705     4.3111 </r>
       <r>    -3.6906     4.2052     4.5632 </r>
       <r>    -3.6307     4.7835     4.8500 </r>
       <r>    -3.5708     3.7528     5.0750 </r>
       <r>    -3.5108     1.7379     5.1792 </r>
       <r>    -3.4509     2.2351     5.3132 </r>
       <r>    -3.3910     2.8253     5.4826 </r>
       <r>    -3.3311     1.3257     5.5620 </r>
       <r>    -3.2712     4.6732     5.8420 </r>
       <r>    -3.2113     4.9787     6.1405 </r>
       <r>    -3.1513     4.1077     6.3867 </r>
       <r>    -3.0914     1.6698     6.4869 </r>
       <r>    -3.0315     2.4585     6.6343 </r>
       <r>    -2.9716     2.4508     6.7812 </r>
       <r>    -2.9117     0.9500     6.8381 </r>
       <r>    -2.8517     0.4551     6.8654 </r>
       <r>    -2.7918     1.5169     6.9563 </r>
       <r>    -2.7319     1.4944     7.0459 </r>
       <r>    -2.6720     1.9835     7.1648 </r>
       <r>    -2.6121     2.8873     7.3378 </r>
       <r>    -2.5522     2.3886     7.4811 </r>
       <r>    -2.4922     2.7205     7.6441 </r>
       <r>    -2.4323     2.3080     7.7825 </r>
       <r>    -2.3724     2.0455     7.9050 </r>
       <r>    -2.3125     1.4458     7.9918 </r>
       <r>    -2.2526     0.1360     8.0000 </r>
       <r>    -2.1927     0.0000     8.0000 </r>
       <r>    -2.1327     0.0000     8.0000 </r>
       <r>    -2.0728     0.0000     8.0000 </r>
       <r>    -2.0129     0.0000     8.0000 </r>
       <r>    -1.9530     0.0000     8.0000 </r>
       <r>    -1.8931     0.0000     8.0000 </r>
       <r>    -1.8332     0.0358     8.0021 </r>
       <r>    -1.7732     0.3399     8.0225 </r>
       <r>    -1.7133     0.8026     8.0706 </r>
       <r>    -1.6534     3.1847     8.2614 </r>
       <r>    -1.5935     2.1328     8.3893 </r>
       <r>    -1.5336     2.8311     8.5590 </r>
       <r>    -1.4736     3.9844     8.7978 </r>
       <r>    -1.4137     1.3715     8.8799 </r>
       <r>    -1.3538     1.8902     8.9932 </r>
       <r>    -1.2939     1.4435     9.0798 </r>
       <r>    -1.2340     3.1502     9.2686 </r>
       <r>    -1.1741     3.8463     9.4991 </r>
       <r>    -1.1141     3.4844     9.7080 </r>
       <r>    -1.0542     3.1441     9.8965 </r>
       <r>    -0.9943     5.9042    10.2504 </r>
       <r>    -0.9344     6.2540    10.6252 </r>
       <r>    -0.8745     4.6977    10.9068 </r>
       <r>    -0.8146     3.3221    11.1059 </r>
       <r>    -0.7546     4.4282    11.3715 </r>
       <r>    -0.6947     2.9241    11.5468 </r>
       <r>    -0.6348     1.6043    11.6429 </r>
       <r>    -0.5749     3.5723    11.8570 </r>
       <r>    -0.5150     3.3753    12.0594 </r>
       <r>    -0.4551     2.7492    12.2241 </r>
       <r>    -0.3951     2.2900    12.3614 </r>
       <r>    -0.3352     2.1036    12.4875 </r>
       <r>    -0.2753     1.8764    12.5999 </r>
       <r>    -0.2154     0.6707    12.6402 </r>
       <r>    -0.1555     0.9248    12.6957 </r>
       <r>    -0.0955     1.7288    12.7993 </r>
       <r>    -0.0356     1.0506    12.8623 </r>
       <r>     0.0243     3.1090    13.0486 </r>
       <r>     0.0842     1.9918    13.1680 </r>
       <r>     0.1441     1.7208    13.2712 </r>
       <r>     0.2040     3.1735    13.4613 </r>
       <r>     0.2640     2.0088    13.5817 </r>
       <r>     0.3239     0.7878    13.6290 </r>
       <r>     0.3838     0.9790    13.6876 </r>
       <r>     0.4437     0.9973    13.7474 </r>
       <r>     0.5036     0.5643    13.7813 </r>
       <r>     0.5635     1.0388    13.8436 </r>
       <r>     0.6235     2.5035    13.9936 </r>
       <r>     0.6834     2.0197    14.1146 </r>
       <r>     0.7433     1.2757    14.1911 </r>
       <r>     0.8032     2.0109    14.3117 </r>
       <r>     0.8631     0.5355    14.3437 </r>
       <r>     0.9230     0.0000    14.3438 </r>
       <r>     0.9830     0.3114    14.3624 </r>
       <r>     1.0429     0.5459    14.3951 </r>
       <r>     1.1028     0.7472    14.4399 </r>
       <r>     1.1627     1.3641    14.5217 </r>
       <r>     1.2226     1.2089    14.5941 </r>
       <r>     1.2826     1.4022    14.6782 </r>
       <r>     1.3425     2.2752    14.8146 </r>
       <r>     1.4024     2.4127    14.9593 </r>
       <r>     1.4623     6.0461    15.3216 </r>
       <r>     1.5222     4.3862    15.5846 </r>
       <r>     1.5821     1.3077    15.6630 </r>
       <r>     1.6421     3.6465    15.8815 </r>
       <r>     1.7020     4.1612    16.1310 </r>
       <r>     1.7619     3.9843    16.3697 </r>
       <r>     1.8218     5.7816    16.7163 </r>
       <r>     1.8817     4.0995    16.9621 </r>
       <r>     1.9416     5.5051    17.2920 </r>
       <r>     2.0016     4.2653    17.5477 </r>
       <r>     2.0615     4.4071    17.8119 </r>
       <r>     2.1214     2.8582    17.9832 </r>
       <r>     2.1813     4.8177    18.2719 </r>
       <r>     2.2412     3.7131    18.4945 </r>
       <r>     2.3011     6.7116    18.8969 </r>
       <r>     2.3611     2.0801    19.0218 </r>
       <r>     2.4210     3.9932    19.2611 </r>
       <r>     2.4809     3.6031    19.4771 </r>
       <r>     2.5408     4.9525    19.7740 </r>
       <r>     2.6007     5.3345    20.0937 </r>
       <r>     2.6607     5.2692    20.4095 </r>
       <r>     2.7206     6.4149    20.7940 </r>
       <r>     2.7805     6.0067    21.1541 </r>
       <r>     2.8404     6.6708    21.5539 </r>
       <r>     2.9003     4.8253    21.8432 </r>
       <r>     2.9602     3.1528    22.0321 </r>
       <r>     3.0202     5.4572    22.3592 </r>
       <r>     3.0801     7.8440    22.8293 </r>
       <r>     3.1400     7.6695    23.2891 </r>
       <r>     3.1999     5.5138    23.6195 </r>
       <r>     3.2598     5.4406    23.9457 </r>
       <r>     3.3197     4.6588    24.2250 </r>
       <r>     3.3797     3.4215    24.4300 </r>
       <r>     3.4396     5.4974    24.7596 </r>
       <r>     3.4995     6.3828    25.1422 </r>
       <r>     3.5594     7.4339    25.5878 </r>
       <r>     3.6193     8.4683    26.0953 </r>
       <r>     3.6792     5.1648    26.4050 </r>
       <r>     3.7392     4.0833    26.6498 </r>
       <r>     3.7991     4.7783    26.9361 </r>
       <r>     3.8590     1.9726    27.0543 </r>
       <r>     3.9189     4.3314    27.3139 </r>
       <r>     3.9788     4.9705    27.6118 </r>
       <r>     4.0388     5.5572    27.9448 </r>
       <r>     4.0987     4.5142    28.2155 </r>
       <r>     4.1586     6.5967    28.6108 </r>
       <r>     4.2185     5.3946    28.9342 </r>
       <r>     4.2784     5.0456    29.2366 </r>
       <r>     4.3383     3.1845    29.4276 </r>
       <r>     4.3983     3.1446    29.6161 </r>
       <r>     4.4582     3.4645    29.8238 </r>
       <r>     4.5181     2.8093    29.9922 </r>
       <r>     4.5780     3.6889    30.2133 </r>
       <r>     4.6379     3.9925    30.4526 </r>
       <r>     4.6978     4.9279    30.7480 </r>
       <r>     4.7578     2.8555    30.9192 </r>
       <r>     4.8177     2.6701    31.0792 </r>
       <r>     4.8776     1.3356    31.1593 </r>
       <r>     4.9375     0.9854    31.2183 </r>
       <r>     4.9974     1.8553    31.3295 </r>
       <r>     5.0573     1.6691    31.4295 </r>
       <r>     5.1173     2.0959    31.5551 </r>
       <r>     5.1772     1.6158    31.6519 </r>
       <r>     5.2371     1.6362    31.7500 </r>
       <r>     5.2970     1.0392    31.8123 </r>
       <r>     5.3569     0.3864    31.8355 </r>
       <r>     5.4169     0.6805    31.8763 </r>
       <r>     5.4768     0.8927    31.9298 </r>
       <r>     5.5367     0.3967    31.9535 </r>
       <r>     5.5966     0.2067    31.9659 </r>
       <r>     5.6565     0.3131    31.9847 </r>
       <r>     5.7164     0.2579    32.0001 </r>
       <r>     5.7764    -0.0021    32.0000 </r>
       <r>     5.8363     0.0000    32.0000 </r>
       <r>     5.8962     0.0000    32.0000 </r>
       <r>     5.9561     0.0000    32.0000 </r>
       <r>     6.0160     0.0000    32.0000 </r>
       <r>     6.0759     0.0000    32.0000 </r>
       <r>     6.1359     0.0000    32.0000 </r>
       <r>     6.1958     0.2099    32.0126 </r>
       <r>     6.2557     0.2611    32.0282 </r>
       <r>     6.3156     0.4321    32.0541 </r>
       <r>     6.3755     1.3116    32.1327 </r>
       <r>     6.4354     0.4991    32.1627 </r>
       <r>     6.4954     1.2998    32.2406 </r>
       <r>     6.5553     0.9381    32.2969 </r>
       <r>     6.6152     1.0228    32.3581 </r>
       <r>     6.6751     1.2316    32.4320 </r>
       <r>     6.7350     2.0026    32.5520 </r>
       <r>     6.7950     2.0416    32.6745 </r>
       <r>     6.8549     2.8237    32.8437 </r>
       <r>     6.9148     1.2010    32.9157 </r>
       <r>     6.9747     1.7153    33.0185 </r>
       <r>     7.0346     2.8512    33.1894 </r>
       <r>     7.0945     4.4382    33.4554 </r>
       <r>     7.1545     4.8281    33.7448 </r>
       <r>     7.2144     2.1332    33.8728 </r>
       <r>     7.2743     1.9246    33.9882 </r>
       <r>     7.3342     2.5135    34.1388 </r>
       <r>     7.3941     3.8295    34.3684 </r>
       <r>     7.4540     4.7509    34.6531 </r>
       <r>     7.5140     3.9445    34.8897 </r>
       <r>     7.5739     2.7473    35.0544 </r>
       <r>     7.6338     3.1551    35.2435 </r>
       <r>     7.6937     8.2611    35.7386 </r>
       <r>     7.7536     8.1209    36.2254 </r>
       <r>     7.8135     7.4492    36.6718 </r>
       <r>     7.8735     7.4844    37.1205 </r>
       <r>     7.9334     5.0215    37.4215 </r>
       <r>     7.9933     4.5620    37.6950 </r>
       <r>     8.0532     4.0141    37.9356 </r>
       <r>     8.1131     6.7404    38.3395 </r>
       <r>     8.1731     3.9926    38.5788 </r>
       <r>     8.2330     5.0808    38.8833 </r>
       <r>     8.2929     6.9791    39.3016 </r>
       <r>     8.3528     5.9555    39.6586 </r>
       <r>     8.4127     3.8482    39.8893 </r>
       <r>     8.4726     2.2924    40.0268 </r>
       <r>     8.5326     3.4243    40.2320 </r>
       <r>     8.5925     5.6990    40.5735 </r>
       <r>     8.6524     4.3081    40.8318 </r>
       <r>     8.7123     2.5707    40.9859 </r>
       <r>     8.7722     5.4726    41.3139 </r>
       <r>     8.8321     7.0824    41.7384 </r>
       <r>     8.8921    10.7907    42.3852 </r>
       <r>     8.9520     8.3774    42.8875 </r>
       <r>     9.0119     7.2414    43.3215 </r>
       <r>     9.0718     5.8481    43.6722 </r>
       <r>     9.1317     4.9007    43.9659 </r>
       <r>     9.1916     4.3871    44.2290 </r>
       <r>     9.2516     4.6727    44.5091 </r>
       <r>     9.3115     5.2571    44.8243 </r>
       <r>     9.3714     6.3806    45.2066 </r>
       <r>     9.4313     6.8182    45.6153 </r>
       <r>     9.4912     5.4142    45.9399 </r>
       <r>     9.5512     4.7575    46.2250 </r>
       <r>     9.6111     5.3779    46.5474 </r>
       <r>     9.6710     1.4873    46.6365 </r>
       <r>     9.7309     2.3025    46.7746 </r>
       <r>     9.7908     4.1171    47.0213 </r>
       <r>     9.8507     3.1381    47.2094 </r>
       <r>     9.9107     3.3596    47.4108 </r>
       <r>     9.9706     3.2867    47.6078 </r>
       <r>    10.0305     2.8217    47.7769 </r>
       <r>    10.0904     2.0434    47.8994 </r>
       <r>    10.1503     1.4073    47.9837 </r>
       <r>    10.2102     0.2711    48.0000 </r>
       <r>    10.2702     0.0000    48.0000 </r>
       <r>    10.3301     0.0000    48.0000 </r>
       <r>    10.3900     0.0000    48.0000 </r>
       <r>    10.4499     0.0000    48.0000 </r>
       <r>    10.5098     0.0000    48.0000 </r>
       <r>    10.5697     0.0000    48.0000 </r>
       <r>    10.6297     0.0000    48.0000 </r>
       <r>    10.6896     0.0000    48.0000 </r>
       <r>    10.7495     0.0000    48.0000 </r>
       <r>    10.8094     0.0000    48.0000 </r>
       <r>    10.8693     0.0000    48.0000 </r>
       <r>    10.9293     0.0000    48.0000 </r>
       <r>    10.9892     0.0000    48.0000 </r>
      </set>
     </set>
    </array>
   </total>
  </dos>
 </calculation>
 <structure name="finalpos" >
  <crystal>
   <varray name="basis" >
    <v>       5.46906415       0.00000000       0.00000000 </v>
    <v>       0.00000000       5.46906415       0.00000000 </v>
    <v>       0.00000000       0.00000000       5.46906415 </v>
   </varray>
   <i name="volume">    163.58333295 </i>
   <varray name="rec_basis" >
    <v>       0.18284664       0.00000000       0.00000000 </v>
    <v>       0.00000000       0.18284664       0.00000000 </v>
    <v>       0.00000000       0.00000000       0.18284664 </v>
   </varray>
  </crystal>
  <varray name="positions" >
   <v>       0.15239779       0.99349160       0.09430974 </v>
   <v>       0.39952916       0.24726678       0.32396245 </v>
   <v>       0.65151777       0.49110674       0.09043859 </v>
   <v>       0.89115107       0.76594435       0.34157082 </v>
   <v>       0.63874114       0.01606572       0.61476574 </v>
   <v>       0.90195733       0.25024280       0.83709994 </v>
   <v>       0.14288933       0.51750240       0.57934743 </v>
   <v>       0.40168599       0.75527185       0.84460200 </v>
  </varray>
 </structure>
</modeling>
