<?xml version="1.0" encoding="ISO-8859-1"?>
<modeling>
 <generator>
  <i name="program" type="string">vasp </i>
  <i name="version" type="string">5.4.1  </i>
  <i name="subversion" type="string">24Jun15 (build Jul  8 2015 13:29:37) complex                          parallel </i>
  <i name="platform" type="string">FX10FRT </i>
  <i name="date" type="string">2016 02 20 </i>
  <i name="time" type="string">07:12:46 </i>
 </generator>
 <incar>
  <i type="string" name="PREC">accurate</i>
  <i type="string" name="ALGO"> Normal</i>
  <i type="int" name="ISPIN">     1</i>
  <i type="int" name="IBRION">    -1</i>
  <i name="EDIFF">      0.00010000</i>
  <i type="int" name="NSW">     0</i>
  <i type="int" name="ISIF">     2</i>
  <i name="ENCUT">    400.00000000</i>
  <i type="int" name="ISMEAR">     2</i>
  <i name="SIGMA">      0.10000000</i>
  <i type="int" name="NWRITE">     1</i>
  <v type="int" name="KPOINT_BSE">    -1     0     0     0</v>
 </incar>
 <kpoints>
  <generation param="Monkhorst-Pack">
   <v type="int" name="divisions">      13       13       13 </v>
   <v name="usershift">      0.00000000       0.00000000       0.00000000 </v>
   <v name="genvec1">      0.07692308       0.00000000       0.00000000 </v>
   <v name="genvec2">      0.00000000       0.07692308       0.00000000 </v>
   <v name="genvec3">      0.00000000       0.00000000       0.07692308 </v>
   <v name="shift">      0.00000000       0.00000000       0.00000000 </v>
  </generation>
  <varray name="kpointlist" >
   <v>       0.00000000       0.00000000       0.00000000 </v>
   <v>       0.07692308       0.00000000       0.00000000 </v>
   <v>       0.15384615       0.00000000       0.00000000 </v>
   <v>       0.23076923       0.00000000       0.00000000 </v>
   <v>       0.30769231       0.00000000       0.00000000 </v>
   <v>       0.38461538       0.00000000       0.00000000 </v>
   <v>       0.46153846       0.00000000       0.00000000 </v>
   <v>       0.07692308       0.07692308       0.00000000 </v>
   <v>       0.15384615       0.07692308       0.00000000 </v>
   <v>       0.23076923       0.07692308       0.00000000 </v>
   <v>       0.30769231       0.07692308       0.00000000 </v>
   <v>       0.38461538       0.07692308       0.00000000 </v>
   <v>       0.46153846       0.07692308       0.00000000 </v>
   <v>       0.15384615       0.15384615       0.00000000 </v>
   <v>       0.23076923       0.15384615       0.00000000 </v>
   <v>       0.30769231       0.15384615       0.00000000 </v>
   <v>       0.38461538       0.15384615       0.00000000 </v>
   <v>       0.46153846       0.15384615       0.00000000 </v>
   <v>       0.23076923       0.23076923       0.00000000 </v>
   <v>       0.30769231       0.23076923       0.00000000 </v>
   <v>       0.38461538       0.23076923       0.00000000 </v>
   <v>       0.46153846       0.23076923       0.00000000 </v>
   <v>       0.30769231       0.30769231       0.00000000 </v>
   <v>       0.38461538       0.30769231       0.00000000 </v>
   <v>       0.46153846       0.30769231       0.00000000 </v>
   <v>       0.38461538       0.38461538       0.00000000 </v>
   <v>       0.46153846       0.38461538       0.00000000 </v>
   <v>       0.46153846       0.46153846       0.00000000 </v>
   <v>       0.07692308       0.07692308       0.07692308 </v>
   <v>       0.15384615       0.07692308       0.07692308 </v>
   <v>       0.23076923       0.07692308       0.07692308 </v>
   <v>       0.30769231       0.07692308       0.07692308 </v>
   <v>       0.38461538       0.07692308       0.07692308 </v>
   <v>       0.46153846       0.07692308       0.07692308 </v>
   <v>       0.15384615       0.15384615       0.07692308 </v>
   <v>       0.23076923       0.15384615       0.07692308 </v>
   <v>       0.30769231       0.15384615       0.07692308 </v>
   <v>       0.38461538       0.15384615       0.07692308 </v>
   <v>       0.46153846       0.15384615       0.07692308 </v>
   <v>       0.23076923       0.23076923       0.07692308 </v>
   <v>       0.30769231       0.23076923       0.07692308 </v>
   <v>       0.38461538       0.23076923       0.07692308 </v>
   <v>       0.46153846       0.23076923       0.07692308 </v>
   <v>       0.30769231       0.30769231       0.07692308 </v>
   <v>       0.38461538       0.30769231       0.07692308 </v>
   <v>       0.46153846       0.30769231       0.07692308 </v>
   <v>       0.38461538       0.38461538       0.07692308 </v>
   <v>       0.46153846       0.38461538       0.07692308 </v>
   <v>       0.46153846       0.46153846       0.07692308 </v>
   <v>       0.15384615       0.15384615       0.15384615 </v>
   <v>       0.23076923       0.15384615       0.15384615 </v>
   <v>       0.30769231       0.15384615       0.15384615 </v>
   <v>       0.38461538       0.15384615       0.15384615 </v>
   <v>       0.46153846       0.15384615       0.15384615 </v>
   <v>       0.23076923       0.23076923       0.15384615 </v>
   <v>       0.30769231       0.23076923       0.15384615 </v>
   <v>       0.38461538       0.23076923       0.15384615 </v>
   <v>       0.46153846       0.23076923       0.15384615 </v>
   <v>       0.30769231       0.30769231       0.15384615 </v>
   <v>       0.38461538       0.30769231       0.15384615 </v>
   <v>       0.46153846       0.30769231       0.15384615 </v>
   <v>       0.38461538       0.38461538       0.15384615 </v>
   <v>       0.46153846       0.38461538       0.15384615 </v>
   <v>       0.46153846       0.46153846       0.15384615 </v>
   <v>       0.23076923       0.23076923       0.23076923 </v>
   <v>       0.30769231       0.23076923       0.23076923 </v>
   <v>       0.38461538       0.23076923       0.23076923 </v>
   <v>       0.46153846       0.23076923       0.23076923 </v>
   <v>       0.30769231       0.30769231       0.23076923 </v>
   <v>       0.38461538       0.30769231       0.23076923 </v>
   <v>       0.46153846       0.30769231       0.23076923 </v>
   <v>       0.38461538       0.38461538       0.23076923 </v>
   <v>       0.46153846       0.38461538       0.23076923 </v>
   <v>       0.46153846       0.46153846       0.23076923 </v>
   <v>       0.30769231       0.30769231       0.30769231 </v>
   <v>       0.38461538       0.30769231       0.30769231 </v>
   <v>       0.46153846       0.30769231       0.30769231 </v>
   <v>       0.38461538       0.38461538       0.30769231 </v>
   <v>       0.46153846       0.38461538       0.30769231 </v>
   <v>       0.46153846       0.46153846       0.30769231 </v>
   <v>       0.38461538       0.38461538       0.38461538 </v>
   <v>       0.46153846       0.38461538       0.38461538 </v>
   <v>       0.46153846       0.46153846       0.38461538 </v>
   <v>       0.46153846       0.46153846       0.46153846 </v>
  </varray>
  <varray name="weights" >
   <v>       0.00045517 </v>
   <v>       0.00273100 </v>
   <v>       0.00273100 </v>
   <v>       0.00273100 </v>
   <v>       0.00273100 </v>
   <v>       0.00273100 </v>
   <v>       0.00273100 </v>
   <v>       0.00546199 </v>
   <v>       0.01092399 </v>
   <v>       0.01092399 </v>
   <v>       0.01092399 </v>
   <v>       0.01092399 </v>
   <v>       0.01092399 </v>
   <v>       0.00546199 </v>
   <v>       0.01092399 </v>
   <v>       0.01092399 </v>
   <v>       0.01092399 </v>
   <v>       0.01092399 </v>
   <v>       0.00546199 </v>
   <v>       0.01092399 </v>
   <v>       0.01092399 </v>
   <v>       0.01092399 </v>
   <v>       0.00546199 </v>
   <v>       0.01092399 </v>
   <v>       0.01092399 </v>
   <v>       0.00546199 </v>
   <v>       0.01092399 </v>
   <v>       0.00546199 </v>
   <v>       0.00364133 </v>
   <v>       0.01092399 </v>
   <v>       0.01092399 </v>
   <v>       0.01092399 </v>
   <v>       0.01092399 </v>
   <v>       0.01092399 </v>
   <v>       0.01092399 </v>
   <v>       0.02184797 </v>
   <v>       0.02184797 </v>
   <v>       0.02184797 </v>
   <v>       0.02184797 </v>
   <v>       0.01092399 </v>
   <v>       0.02184797 </v>
   <v>       0.02184797 </v>
   <v>       0.02184797 </v>
   <v>       0.01092399 </v>
   <v>       0.02184797 </v>
   <v>       0.02184797 </v>
   <v>       0.01092399 </v>
   <v>       0.02184797 </v>
   <v>       0.01092399 </v>
   <v>       0.00364133 </v>
   <v>       0.01092399 </v>
   <v>       0.01092399 </v>
   <v>       0.01092399 </v>
   <v>       0.01092399 </v>
   <v>       0.01092399 </v>
   <v>       0.02184797 </v>
   <v>       0.02184797 </v>
   <v>       0.02184797 </v>
   <v>       0.01092399 </v>
   <v>       0.02184797 </v>
   <v>       0.02184797 </v>
   <v>       0.01092399 </v>
   <v>       0.02184797 </v>
   <v>       0.01092399 </v>
   <v>       0.00364133 </v>
   <v>       0.01092399 </v>
   <v>       0.01092399 </v>
   <v>       0.01092399 </v>
   <v>       0.01092399 </v>
   <v>       0.02184797 </v>
   <v>       0.02184797 </v>
   <v>       0.01092399 </v>
   <v>       0.02184797 </v>
   <v>       0.01092399 </v>
   <v>       0.00364133 </v>
   <v>       0.01092399 </v>
   <v>       0.01092399 </v>
   <v>       0.01092399 </v>
   <v>       0.02184797 </v>
   <v>       0.01092399 </v>
   <v>       0.00364133 </v>
   <v>       0.01092399 </v>
   <v>       0.01092399 </v>
   <v>       0.00364133 </v>
  </varray>
 </kpoints>
 <parameters>
  <separator name="general" >
   <i type="string" name="SYSTEM">unknown system</i>
   <i type="logical" name="LCOMPAT"> F  </i>
  </separator>
  <separator name="electronic" >
   <i type="string" name="PREC">accura</i>
   <i name="ENMAX">    400.00000000</i>
   <i name="ENAUG">    322.06900000</i>
   <i name="EDIFF">      0.00010000</i>
   <i type="int" name="IALGO">    38</i>
   <i type="int" name="IWAVPR">    10</i>
   <i type="int" name="NBANDS">    16</i>
   <i name="NELECT">     16.00000000</i>
   <i type="int" name="TURBO">     0</i>
   <i type="int" name="IRESTART">     0</i>
   <i type="int" name="NREBOOT">     0</i>
   <i type="int" name="NMIN">     0</i>
   <i name="EREF">      0.00000000</i>
   <separator name="electronic smearing" >
    <i type="int" name="ISMEAR">     2</i>
    <i name="SIGMA">      0.10000000</i>
    <i name="KSPACING">      0.50000000</i>
    <i type="logical" name="KGAMMA"> T  </i>
   </separator>
   <separator name="electronic projectors" >
    <i type="logical" name="LREAL"> F  </i>
    <v name="ROPT">      0.00000000</v>
    <i type="int" name="LMAXPAW">  -100</i>
    <i type="int" name="LMAXMIX">     2</i>
    <i type="logical" name="NLSPLINE"> F  </i>
   </separator>
   <separator name="electronic startup" >
    <i type="int" name="ISTART">     0</i>
    <i type="int" name="ICHARG">     2</i>
    <i type="int" name="INIWAV">     1</i>
   </separator>
   <separator name="electronic spin" >
    <i type="int" name="ISPIN">     1</i>
    <i type="logical" name="LNONCOLLINEAR"> F  </i>
    <v name="MAGMOM">      1.00000000      1.00000000      1.00000000      1.00000000</v>
    <i name="NUPDOWN">     -1.00000000</i>
    <i type="logical" name="LSORBIT"> F  </i>
    <v name="SAXIS">      0.00000000      0.00000000      1.00000000</v>
    <i type="logical" name="LSPIRAL"> F  </i>
    <v name="QSPIRAL">      0.00000000      0.00000000      0.00000000</v>
    <i type="logical" name="LZEROZ"> F  </i>
   </separator>
   <separator name="electronic exchange-correlation" >
    <i type="logical" name="LASPH"> F  </i>
    <i type="logical" name="LMETAGGA"> F  </i>
   </separator>
   <separator name="electronic convergence" >
    <i type="int" name="NELM">    60</i>
    <i type="int" name="NELMDL">    -5</i>
    <i type="int" name="NELMIN">     2</i>
    <i name="ENINI">    400.00000000</i>
    <separator name="electronic convergence detail" >
     <i type="logical" name="LDIAG"> T  </i>
     <i type="logical" name="LSUBROT"> F  </i>
     <i name="WEIMIN">      0.00000000</i>
     <i name="EBREAK">      0.00000156</i>
     <i name="DEPER">      0.30000000</i>
     <i type="int" name="NRMM">     4</i>
     <i name="TIME">      0.40000000</i>
    </separator>
   </separator>
   <separator name="electronic mixer" >
    <i name="AMIX">      0.40000000</i>
    <i name="BMIX">      1.00000000</i>
    <i name="AMIN">      0.10000000</i>
    <i name="AMIX_MAG">      1.60000000</i>
    <i name="BMIX_MAG">      1.00000000</i>
    <separator name="electronic mixer details" >
     <i type="int" name="IMIX">     4</i>
     <i type="logical" name="MIXFIRST"> F  </i>
     <i type="int" name="MAXMIX">   -45</i>
     <i name="WC">    100.00000000</i>
     <i type="int" name="INIMIX">     1</i>
     <i type="int" name="MIXPRE">     1</i>
     <i type="int" name="MREMOVE">     5</i>
    </separator>
   </separator>
   <separator name="electronic dipolcorrection" >
    <i type="logical" name="LDIPOL"> F  </i>
    <i type="logical" name="LMONO"> F  </i>
    <i type="int" name="IDIPOL">     0</i>
    <i name="EPSILON">      1.00000000</i>
    <v name="DIPOL">   -100.00000000   -100.00000000   -100.00000000</v>
    <i name="EFIELD">      0.00000000</i>
   </separator>
  </separator>
  <separator name="grids" >
   <i type="int" name="NGX">    28</i>
   <i type="int" name="NGY">    28</i>
   <i type="int" name="NGZ">    28</i>
   <i type="int" name="NGXF">    56</i>
   <i type="int" name="NGYF">    56</i>
   <i type="int" name="NGZF">    56</i>
   <i type="logical" name="ADDGRID"> F  </i>
  </separator>
  <separator name="ionic" >
   <i type="int" name="NSW">     0</i>
   <i type="int" name="IBRION">    -1</i>
   <i type="int" name="ISIF">     2</i>
   <i name="PSTRESS">      0.00000000</i>
   <i name="EDIFFG">      0.00100000</i>
   <i type="int" name="NFREE">     0</i>
   <i name="POTIM">      0.50000000</i>
   <i name="SMASS">     -3.00000000</i>
   <i name="SCALEE">      1.00000000</i>
  </separator>
  <separator name="ionic md" >
   <i name="TEBEG">      0.00010000</i>
   <i name="TEEND">      0.00010000</i>
   <i type="int" name="NBLOCK">     1</i>
   <i type="int" name="KBLOCK">     1</i>
   <i type="int" name="NPACO">   256</i>
   <i name="APACO">     16.00000000</i>
  </separator>
  <separator name="symmetry" >
   <i type="int" name="ISYM">     2</i>
   <i name="SYMPREC">      0.00001000</i>
  </separator>
  <separator name="dos" >
   <i type="logical" name="LORBIT"> F  </i>
   <v name="RWIGS">     -1.00000000</v>
   <i type="int" name="NEDOS">   301</i>
   <i name="EMIN">     10.00000000</i>
   <i name="EMAX">    -10.00000000</i>
   <i name="EFERMI">      0.00000000</i>
  </separator>
  <separator name="writing" >
   <i type="int" name="NWRITE">     1</i>
   <i type="logical" name="LWAVE"> T  </i>
   <i type="logical" name="LCHARG"> T  </i>
   <i type="logical" name="LPARD"> F  </i>
   <i type="logical" name="LVTOT"> F  </i>
   <i type="logical" name="LVHAR"> F  </i>
   <i type="logical" name="LELF"> F  </i>
   <i type="logical" name="LOPTICS"> F  </i>
   <v name="STM">      0.00000000      0.00000000      0.00000000      0.00000000      0.00000000      0.00000000      0.00000000</v>
  </separator>
  <separator name="performance" >
   <i type="int" name="NPAR">     8</i>
   <i type="int" name="NSIM">     4</i>
   <i type="int" name="NBLK">    -1</i>
   <i type="logical" name="LPLANE"> T  </i>
   <i type="logical" name="LSCALAPACK"> T  </i>
   <i type="logical" name="LSCAAWARE"> F  </i>
   <i type="logical" name="LSCALU"> F  </i>
   <i type="logical" name="LASYNC"> F  </i>
   <i type="logical" name="LORBITALREAL"> F  </i>
  </separator>
  <separator name="miscellaneous" >
   <i type="int" name="IDIOT">     3</i>
   <i type="logical" name="LMUSIC"> F  </i>
   <v name="POMASS">     28.08500000</v>
   <v name="DARWINR">      0.00000000</v>
   <v name="DARWINV">      1.00000000</v>
   <i type="logical" name="LCORR"> T  </i>
  </separator>
  <i type="logical" name="GGA_COMPAT"> T  </i>
  <i type="logical" name="LBERRY"> F  </i>
  <i type="int" name="ICORELEVEL">     0</i>
  <i type="logical" name="LDAU"> F  </i>
  <i type="int" name="I_CONSTRAINED_M">     0</i>
  <separator name="electronic exchange-correlation" >
   <i type="string" name="GGA">--</i>
   <i type="int" name="VOSKOWN">     0</i>
   <i type="logical" name="LHFCALC"> F  </i>
   <i type="string" name="PRECFOCK"></i>
   <i type="logical" name="LSYMGRAD"> F  </i>
   <i type="logical" name="LHFONE"> F  </i>
   <i type="logical" name="LRHFCALC"> F  </i>
   <i type="logical" name="LTHOMAS"> F  </i>
   <i type="logical" name="LMODELHF"> F  </i>
   <i name="ENCUT4O">     -1.00000000</i>
   <i type="int" name="EXXOEP">     0</i>
   <i type="int" name="FOURORBIT">     0</i>
   <i name="AEXX">      0.00000000</i>
   <i name="HFALPHA">      0.00000000</i>
   <i name="MCALPHA">      0.00000000</i>
   <i name="ALDAX">      1.00000000</i>
   <i name="AGGAX">      1.00000000</i>
   <i name="ALDAC">      1.00000000</i>
   <i name="AGGAC">      1.00000000</i>
   <i type="int" name="NKREDX">     1</i>
   <i type="int" name="NKREDY">     1</i>
   <i type="int" name="NKREDZ">     1</i>
   <i type="logical" name="SHIFTRED"> F  </i>
   <i type="logical" name="ODDONLY"> F  </i>
   <i type="logical" name="EVENONLY"> F  </i>
   <i type="int" name="LMAXFOCK">     0</i>
   <i type="int" name="NMAXFOCKAE">     0</i>
   <i type="logical" name="LFOCKAEDFT"> F  </i>
   <i name="HFSCREEN">      0.00000000</i>
   <i name="HFSCREENC">      0.00000000</i>
   <i type="int" name="NBANDSGWLOW">     0</i>
  </separator>
  <separator name="vdW DFT" >
   <i type="logical" name="LUSE_VDW"> F  </i>
   <i name="Zab_VDW">     -0.84910000</i>
   <i name="PARAM1">      0.12340000</i>
   <i name="PARAM2">      1.00000000</i>
   <i name="PARAM3">      0.00000000</i>
  </separator>
  <separator name="model GW" >
   <i type="int" name="MODEL_GW">     0</i>
   <i name="MODEL_EPS0">      8.41988983</i>
   <i name="MODEL_ALPHA">      1.00000000</i>
  </separator>
  <separator name="linear response parameters" >
   <i type="logical" name="LEPSILON"> F  </i>
   <i type="logical" name="LRPA"> F  </i>
   <i type="logical" name="LNABLA"> F  </i>
   <i type="logical" name="LVEL"> F  </i>
   <i type="int" name="KINTER">     0</i>
   <i name="CSHIFT">      0.10000000</i>
   <i name="OMEGAMAX">     -1.00000000</i>
   <i name="DEG_THRESHOLD">      0.00200000</i>
  </separator>
  <separator name="orbital magnetization" >
   <i type="logical" name="NUCIND"> F  </i>
   <v name="MAGPOS">      0.00000000      0.00000000      0.00000000</v>
   <i type="logical" name="LNICSALL"> T  </i>
   <i type="logical" name="ORBITALMAG"> F  </i>
   <i type="logical" name="LMAGBLOCH"> F  </i>
   <i type="logical" name="LCHIMAG"> F  </i>
   <i type="logical" name="LGAUGE"> T  </i>
   <i type="int" name="MAGATOM">     0</i>
   <v name="MAGDIPOL">      0.00000000      0.00000000      0.00000000</v>
   <v name="AVECCONST">      0.00000000      0.00000000      0.00000000</v>
  </separator>
  <separator name="response functions" >
   <i type="logical" name="LADDER"> F  </i>
   <i type="logical" name="LFXC"> F  </i>
   <i type="logical" name="LHARTREE"> T  </i>
   <i type="int" name="IBSE">     0</i>
   <v type="int" name="KPOINT">    -1     0     0     0</v>
   <i type="logical" name="LTCTE"> F  </i>
   <i type="logical" name="LTETE"> F  </i>
   <i type="logical" name="LTRIPLET"> F  </i>
   <i type="logical" name="LFXCEPS"> F  </i>
   <i type="logical" name="LFXHEG"> F  </i>
   <i type="int" name="NATURALO">     0</i>
   <i type="logical" name="L2ORDER"> F  </i>
   <i type="logical" name="LUSEW"> F  </i>
   <i name="ENCUTGW">     -2.00000000</i>
   <i name="ENCUTGWSOFT">     -2.00000000</i>
   <i name="ENCUTLF">     -1.00000000</i>
   <i type="int" name="LMAXMP2">    -1</i>
   <i name="SCISSOR">      0.00000000</i>
   <i type="int" name="NOMEGA">     0</i>
   <i type="int" name="NOMEGAR">     0</i>
   <i type="int" name="NBANDSGW">    -1</i>
   <i type="int" name="NBANDSO">    -1</i>
   <i type="int" name="NBANDSV">    -1</i>
   <i type="int" name="NELM">     1</i>
   <i type="int" name="NELMHF">     1</i>
   <i type="int" name="DIM">     3</i>
   <i type="int" name="ANTIRES">     0</i>
   <i name="OMEGAMAX">    -30.00000000</i>
   <i name="OMEGAMIN">    -30.00000000</i>
   <i name="OMEGATL">   -200.00000000</i>
   <i type="int" name="OMEGAGRID">     0</i>
   <i name="CSHIFT">     -0.10000000</i>
   <i type="logical" name="SELFENERGY"> F  </i>
   <i type="logical" name="LSPECTRAL"> F  </i>
   <i type="logical" name="LSPECTRALGW"> F  </i>
   <i type="logical" name="LSINGLES"> F  </i>
   <i type="logical" name="LFERMIGW"> F  </i>
   <i type="logical" name="ODDONLYGW"> F  </i>
   <i type="logical" name="EVENONLYGW"> F  </i>
   <i type="int" name="NKREDLFX">     1</i>
   <i type="int" name="NKREDLFY">     1</i>
   <i type="int" name="NKREDLFZ">     1</i>
   <i type="int" name="MAXMEM">  1800</i>
   <i type="int" name="TELESCOPE">     0</i>
   <i type="int" name="TAUPAR">     1</i>
   <i type="int" name="OMEGAPAR">    -1</i>
   <i name="LAMBDA">      1.00000000</i>
  </separator>
  <separator name="External order field" >
   <i name="OFIELD_KAPPA">      0.00000000</i>
   <v name="OFIELD_K">      0.00000000      0.00000000      0.00000000</v>
   <i name="OFIELD_Q6_NEAR">      0.00000000</i>
   <i name="OFIELD_Q6_FAR">      0.00000000</i>
   <i name="OFIELD_A">      0.00000000</i>
  </separator>
 </parameters>
 <atominfo>
  <atoms>       4 </atoms>
  <types>       1 </types>
  <array name="atoms" >
   <dimension dim="1">ion</dimension>
   <field type="string">element</field>
   <field type="int">atomtype</field>
   <set>
    <rc><c>Si</c><c>   1</c></rc>
    <rc><c>Si</c><c>   1</c></rc>
    <rc><c>Si</c><c>   1</c></rc>
    <rc><c>Si</c><c>   1</c></rc>
   </set>
  </array>
  <array name="atomtypes" >
   <dimension dim="1">type</dimension>
   <field type="int">atomspertype</field>
   <field type="string">element</field>
   <field>mass</field>
   <field>valence</field>
   <field type="string">pseudopotential</field>
   <set>
    <rc><c>   4</c><c>Si</c><c>     28.08500000</c><c>      4.00000000</c><c>  PAW_PBE Si 05Jan2001                  </c></rc>
   </set>
  </array>
 </atominfo>
 <structure name="initialpos" >
  <crystal>
   <varray name="basis" >
    <v>       3.82887966       0.00000000       0.00000000 </v>
    <v>       0.00000000       3.82887966       0.00000000 </v>
    <v>       0.00000000       0.00000000       3.82887966 </v>
   </varray>
   <i name="volume">     56.13259886 </i>
   <varray name="rec_basis" >
    <v>       0.26117300       0.00000000       0.00000000 </v>
    <v>       0.00000000       0.26117300       0.00000000 </v>
    <v>       0.00000000       0.00000000       0.26117300 </v>
   </varray>
  </crystal>
  <varray name="positions" >
   <v>       0.00000000       0.00000000       0.00000000 </v>
   <v>       0.50000000       0.50000000       0.00000000 </v>
   <v>       0.50000000       0.00000000       0.50000000 </v>
   <v>       0.00000000       0.50000000       0.50000000 </v>
  </varray>
 </structure>
 <calculation>
  <scstep>
   <time name="dav">    0.95    0.99</time>
   <time name="total">    1.00    1.05</time>
   <energy>
    <i name="alphaZ">      9.59531723 </i>
    <i name="ewald">   -551.77321540 </i>
    <i name="hartreedc">     -2.14211023 </i>
    <i name="XCdc">    -34.89673360 </i>
    <i name="pawpsdc">    352.49519846 </i>
    <i name="pawaedc">   -282.12207116 </i>
    <i name="eentropy">      0.00038262 </i>
    <i name="bandstr">    110.42770672 </i>
    <i name="atom">    412.26298491 </i>
    <i name="e_fr_energy">     13.84745954 </i>
    <i name="e_wo_entrp">     13.84707692 </i>
    <i name="e_0_energy">     13.84736389 </i>
   </energy>
  </scstep>
  <scstep>
   <time name="dav">    1.15    1.17</time>
   <time name="total">    1.16    1.20</time>
   <energy>
    <i name="e_fr_energy">    -18.64047703 </i>
    <i name="e_wo_entrp">    -18.64131363 </i>
    <i name="e_0_energy">    -18.64068618 </i>
   </energy>
  </scstep>
  <scstep>
   <time name="dav">    1.09    1.10</time>
   <time name="total">    1.11    1.12</time>
   <energy>
    <i name="e_fr_energy">    -19.61136643 </i>
    <i name="e_wo_entrp">    -19.61153858 </i>
    <i name="e_0_energy">    -19.61140947 </i>
   </energy>
  </scstep>
  <scstep>
   <time name="dav">    1.09    1.11</time>
   <time name="total">    1.12    1.13</time>
   <energy>
    <i name="e_fr_energy">    -19.61574418 </i>
    <i name="e_wo_entrp">    -19.61590763 </i>
    <i name="e_0_energy">    -19.61578504 </i>
   </energy>
  </scstep>
  <scstep>
   <time name="dav">    1.08    1.08</time>
   <time name="total">    1.14    1.16</time>
   <energy>
    <i name="e_fr_energy">    -19.61576982 </i>
    <i name="e_wo_entrp">    -19.61593326 </i>
    <i name="e_0_energy">    -19.61581068 </i>
   </energy>
  </scstep>
  <scstep>
   <time name="dav">    1.05    1.06</time>
   <time name="total">    1.12    1.13</time>
   <energy>
    <i name="e_fr_energy">    -19.56172710 </i>
    <i name="e_wo_entrp">    -19.56180740 </i>
    <i name="e_0_energy">    -19.56174717 </i>
   </energy>
  </scstep>
  <scstep>
   <time name="dav">    0.99    0.99</time>
   <time name="total">    1.04    1.06</time>
   <energy>
    <i name="e_fr_energy">    -19.53067878 </i>
    <i name="e_wo_entrp">    -19.53069311 </i>
    <i name="e_0_energy">    -19.53068236 </i>
   </energy>
  </scstep>
  <scstep>
   <time name="dav">    1.15    1.14</time>
   <time name="total">    1.20    1.21</time>
   <energy>
    <i name="e_fr_energy">    -19.53045345 </i>
    <i name="e_wo_entrp">    -19.53046352 </i>
    <i name="e_0_energy">    -19.53045597 </i>
   </energy>
  </scstep>
  <scstep>
   <time name="dav">    0.74    0.74</time>
   <time name="total">    0.76    0.77</time>
   <energy>
    <i name="alphaZ">      9.59531723 </i>
    <i name="ewald">   -551.77321540 </i>
    <i name="hartreedc">     -1.61714320 </i>
    <i name="XCdc">    -34.64568948 </i>
    <i name="pawpsdc">   1268.38388252 </i>
    <i name="pawaedc">  -1198.06318160 </i>
    <i name="eentropy">      0.00000950 </i>
    <i name="bandstr">     76.32658135 </i>
    <i name="atom">    412.26298491 </i>
    <i name="e_fr_energy">    -19.53045418 </i>
    <i name="e_wo_entrp">    -19.53046367 </i>
    <i name="e_0_energy">    -19.53045655 </i>
   </energy>
  </scstep>
  <structure>
   <crystal>
    <varray name="basis" >
     <v>       3.82887966       0.00000000       0.00000000 </v>
     <v>       0.00000000       3.82887966       0.00000000 </v>
     <v>       0.00000000       0.00000000       3.82887966 </v>
    </varray>
    <i name="volume">     56.13259886 </i>
    <varray name="rec_basis" >
     <v>       0.26117300       0.00000000       0.00000000 </v>
     <v>       0.00000000       0.26117300       0.00000000 </v>
     <v>       0.00000000       0.00000000       0.26117300 </v>
    </varray>
   </crystal>
   <varray name="positions" >
    <v>       0.00000000       0.00000000       0.00000000 </v>
    <v>       0.50000000       0.50000000       0.00000000 </v>
    <v>       0.50000000       0.00000000       0.50000000 </v>
    <v>       0.00000000       0.50000000       0.50000000 </v>
   </varray>
  </structure>
  <varray name="forces" >
   <v>       0.00000000       0.00000000       0.00000000 </v>
   <v>       0.00000000       0.00000000       0.00000000 </v>
   <v>       0.00000000       0.00000000       0.00000000 </v>
   <v>       0.00000000       0.00000000       0.00000000 </v>
  </varray>
  <varray name="stress" >
   <v>      27.41869835       0.00000000       0.00000000 </v>
   <v>       0.00000000      27.41869835       0.00000000 </v>
   <v>       0.00000000       0.00000000      27.41869835 </v>
  </varray>
  <energy>
   <i name="e_fr_energy">    -19.53045418 </i>
   <i name="e_wo_entrp">    -19.53045655 </i>
   <i name="e_0_energy">      0.00000950 </i>
  </energy>
  <time name="totalsc">   10.65   10.87</time>
  <eigenvalues>
   <array>
    <dimension dim="1">band</dimension>
    <dimension dim="2">kpoint</dimension>
    <dimension dim="3">spin</dimension>
    <field>eigene</field>
    <field>occ</field>
    <set>
     <set comment="spin 1">
      <set comment="kpoint 1">
       <r>   -4.1605    1.0000 </r>
       <r>    5.0737    1.0000 </r>
       <r>    5.0737    1.0000 </r>
       <r>    5.0737    1.0000 </r>
       <r>    6.0523    1.0000 </r>
       <r>    6.0523    1.0000 </r>
       <r>    6.0523    1.0000 </r>
       <r>   13.8641    0.0000 </r>
       <r>   13.8641    0.0000 </r>
       <r>   13.8641    0.0000 </r>
       <r>   13.8641    0.0000 </r>
       <r>   13.8641    0.0000 </r>
       <r>   13.8641    0.0000 </r>
       <r>   14.9301    0.0000 </r>
       <r>   14.9301    0.0000 </r>
       <r>   14.9301    0.0000 </r>
      </set>
      <set comment="kpoint 2">
       <r>   -4.1018    1.0000 </r>
       <r>    4.0740    1.0000 </r>
       <r>    5.1288    1.0000 </r>
       <r>    5.1288    1.0000 </r>
       <r>    6.1081    1.0000 </r>
       <r>    6.1081    1.0000 </r>
       <r>    7.1526    1.0000 </r>
       <r>   12.9266    0.0000 </r>
       <r>   12.9266    0.0000 </r>
       <r>   13.4446    0.0000 </r>
       <r>   13.4446    0.0000 </r>
       <r>   13.9153    0.0000 </r>
       <r>   13.9153    0.0000 </r>
       <r>   14.9881    0.0000 </r>
       <r>   15.9744    0.0000 </r>
       <r>   15.9744    0.0000 </r>
      </set>
      <set comment="kpoint 3">
       <r>   -3.9259    1.0000 </r>
       <r>    2.8077    1.0000 </r>
       <r>    5.2939    1.0000 </r>
       <r>    5.2939    1.0000 </r>
       <r>    6.2751    1.0000 </r>
       <r>    6.2751    1.0000 </r>
       <r>    8.7197    1.0000 </r>
       <r>   11.7074    0.0000 </r>
       <r>   11.7074    0.0000 </r>
       <r>   12.5565    0.0000 </r>
       <r>   12.5565    0.0000 </r>
       <r>   14.0688    0.0000 </r>
       <r>   14.0688    0.0000 </r>
       <r>   15.1619    0.0000 </r>
       <r>   17.5143    0.0000 </r>
       <r>   17.5143    0.0000 </r>
      </set>
      <set comment="kpoint 4">
       <r>   -3.6329    1.0000 </r>
       <r>    1.6220    1.0000 </r>
       <r>    5.5691    1.0000 </r>
       <r>    5.5691    1.0000 </r>
       <r>    6.5509    1.0000 </r>
       <r>    6.5509    1.0000 </r>
       <r>   10.4022    0.9966 </r>
       <r>   10.5664    1.0137 </r>
       <r>   10.5664    1.0137 </r>
       <r>   11.5707    0.0000 </r>
       <r>   11.5707    0.0000 </r>
       <r>   14.3244    0.0000 </r>
       <r>   14.3244    0.0000 </r>
       <r>   15.4510    0.0000 </r>
       <r>   18.0662    0.0000 </r>
       <r>   18.9405    0.0000 </r>
      </set>
      <set comment="kpoint 5">
       <r>   -3.2236    1.0000 </r>
       <r>    0.5381    1.0000 </r>
       <r>    5.9543    1.0000 </r>
       <r>    5.9543    1.0000 </r>
       <r>    6.9304    1.0000 </r>
       <r>    6.9304    1.0000 </r>
       <r>    9.5268    1.0000 </r>
       <r>    9.5268    1.0000 </r>
       <r>   10.6176    0.6682 </r>
       <r>   10.6176    0.6682 </r>
       <r>   12.1710    0.0000 </r>
       <r>   14.6823    0.0000 </r>
       <r>   14.6823    0.0000 </r>
       <r>   15.8559    0.0000 </r>
       <r>   17.9851    0.0000 </r>
       <r>   17.9851    0.0000 </r>
      </set>
      <set comment="kpoint 6">
       <r>   -2.6984    1.0000 </r>
       <r>   -0.4384    1.0000 </r>
       <r>    6.4495    1.0000 </r>
       <r>    6.4495    1.0000 </r>
       <r>    7.3975    1.0000 </r>
       <r>    7.3975    1.0000 </r>
       <r>    8.5940    1.0000 </r>
       <r>    8.5940    1.0000 </r>
       <r>    9.7553    1.0000 </r>
       <r>    9.7553    1.0000 </r>
       <r>   14.0025    0.0000 </r>
       <r>   15.1419    0.0000 </r>
       <r>   15.1419    0.0000 </r>
       <r>   16.3719    0.0000 </r>
       <r>   17.1261    0.0000 </r>
       <r>   17.1261    0.0000 </r>
      </set>
      <set comment="kpoint 7">
       <r>   -2.0583    1.0000 </r>
       <r>   -1.3045    1.0000 </r>
       <r>    7.0548    1.0000 </r>
       <r>    7.0548    1.0000 </r>
       <r>    7.7697    1.0000 </r>
       <r>    7.7697    1.0000 </r>
       <r>    7.8707    1.0000 </r>
       <r>    7.8707    1.0000 </r>
       <r>    9.0817    1.0000 </r>
       <r>    9.0817    1.0000 </r>
       <r>   15.7027    0.0000 </r>
       <r>   15.7027    0.0000 </r>
       <r>   15.8530    0.0000 </r>
       <r>   16.3644    0.0000 </r>
       <r>   16.3644    0.0000 </r>
       <r>   16.9989    0.0000 </r>
      </set>
      <set comment="kpoint 8">
       <r>   -4.0431    1.0000 </r>
       <r>    4.1299    1.0000 </r>
       <r>    4.1299    1.0000 </r>
       <r>    5.1838    1.0000 </r>
       <r>    6.1637    1.0000 </r>
       <r>    7.2075    1.0000 </r>
       <r>    7.2075    1.0000 </r>
       <r>   11.9531    0.0000 </r>
       <r>   12.9802    0.0000 </r>
       <r>   12.9802    0.0000 </r>
       <r>   13.4968    0.0000 </r>
       <r>   13.4968    0.0000 </r>
       <r>   13.9660    0.0000 </r>
       <r>   15.9915    0.0000 </r>
       <r>   16.0303    0.0000 </r>
       <r>   16.0303    0.0000 </r>
      </set>
      <set comment="kpoint 9">
       <r>   -3.8673    1.0000 </r>
       <r>    2.8641    1.0000 </r>
       <r>    4.2974    1.0000 </r>
       <r>    5.3489    1.0000 </r>
       <r>    6.3296    1.0000 </r>
       <r>    7.3712    1.0000 </r>
       <r>    8.7731    1.0000 </r>
       <r>   10.7641   -0.0281 </r>
       <r>   11.7618    0.0000 </r>
       <r>   12.6107    0.0000 </r>
       <r>   13.1408    0.0000 </r>
       <r>   13.4839    0.0000 </r>
       <r>   13.6538    0.0000 </r>
       <r>   16.1971    0.0000 </r>
       <r>   16.9725    0.0000 </r>
       <r>   17.5691    0.0000 </r>
      </set>
      <set comment="kpoint 10">
       <r>   -3.5744    1.0000 </r>
       <r>    1.6789    1.0000 </r>
       <r>    4.5761    1.0000 </r>
       <r>    5.6241    1.0000 </r>
       <r>    6.6023    1.0000 </r>
       <r>    7.6414    1.0000 </r>
       <r>    9.6441    1.0000 </r>
       <r>   10.4530    0.9969 </r>
       <r>   10.6209    0.6351 </r>
       <r>   11.6277    0.0000 </r>
       <r>   12.5599    0.0000 </r>
       <r>   13.4081    0.0000 </r>
       <r>   13.9163    0.0000 </r>
       <r>   16.4741    0.0000 </r>
       <r>   18.1858    0.0000 </r>
       <r>   18.4836    0.0000 </r>
      </set>
      <set comment="kpoint 11">
       <r>   -3.1652    1.0000 </r>
       <r>    0.5953    1.0000 </r>
       <r>    4.9654    1.0000 </r>
       <r>    6.0093    1.0000 </r>
       <r>    6.9692    1.0000 </r>
       <r>    8.0109    1.0000 </r>
       <r>    8.6302    1.0000 </r>
       <r>    9.5816    1.0000 </r>
       <r>   10.6809    0.0787 </r>
       <r>   11.6155    0.0000 </r>
       <r>   12.2141    0.0000 </r>
       <r>   13.7817    0.0000 </r>
       <r>   14.2884    0.0000 </r>
       <r>   16.8610    0.0000 </r>
       <r>   17.2068    0.0000 </r>
       <r>   17.5332    0.0000 </r>
      </set>
      <set comment="kpoint 12">
       <r>   -2.6401    1.0000 </r>
       <r>   -0.3809    1.0000 </r>
       <r>    5.4635    1.0000 </r>
       <r>    6.5045    1.0000 </r>
       <r>    7.2918    1.0000 </r>
       <r>    7.8641    1.0000 </r>
       <r>    8.4463    1.0000 </r>
       <r>    8.6488    1.0000 </r>
       <r>    9.8471    1.0000 </r>
       <r>   10.7392   -0.0490 </r>
       <r>   13.9994    0.0000 </r>
       <r>   14.2611    0.0000 </r>
       <r>   14.8058    0.0000 </r>
       <r>   16.3204    0.0000 </r>
       <r>   16.6797    0.0000 </r>
       <r>   17.3570    0.0000 </r>
      </set>
      <set comment="kpoint 13">
       <r>   -2.0002    1.0000 </r>
       <r>   -1.2467    1.0000 </r>
       <r>    6.0670    1.0000 </r>
       <r>    6.7599    1.0000 </r>
       <r>    7.1097    1.0000 </r>
       <r>    7.8246    1.0000 </r>
       <r>    8.1410    1.0000 </r>
       <r>    8.6294    1.0000 </r>
       <r>    9.4644    1.0000 </r>
       <r>    9.9731    1.0000 </r>
       <r>   14.8451    0.0000 </r>
       <r>   15.2008    0.0000 </r>
       <r>   15.5321    0.0000 </r>
       <r>   15.9112    0.0000 </r>
       <r>   16.0389    0.0000 </r>
       <r>   17.8085    0.0000 </r>
      </set>
      <set comment="kpoint 14">
       <r>   -3.6915    1.0000 </r>
       <r>    3.0333    1.0000 </r>
       <r>    3.0333    1.0000 </r>
       <r>    5.5140    1.0000 </r>
       <r>    6.4909    1.0000 </r>
       <r>    8.9320    1.0000 </r>
       <r>    8.9320    1.0000 </r>
       <r>    9.5673    1.0000 </r>
       <r>   11.9243    0.0000 </r>
       <r>   11.9243    0.0000 </r>
       <r>   12.7743    0.0000 </r>
       <r>   12.7743    0.0000 </r>
       <r>   14.2712    0.0000 </r>
       <r>   16.6159    0.0000 </r>
       <r>   17.7321    0.0000 </r>
       <r>   17.7322    0.0000 </r>
      </set>
      <set comment="kpoint 15">
       <r>   -3.3990    1.0000 </r>
       <r>    1.8493    1.0000 </r>
       <r>    3.3148    1.0000 </r>
       <r>    5.7891    1.0000 </r>
       <r>    6.7465    1.0000 </r>
       <r>    8.4566    1.0000 </r>
       <r>    9.1905    1.0000 </r>
       <r>   10.6010    0.8200 </r>
       <r>   10.7845   -0.0104 </r>
       <r>   11.8024    0.0000 </r>
       <r>   12.1953    0.0000 </r>
       <r>   13.0524    0.0000 </r>
       <r>   13.8929    0.0000 </r>
       <r>   17.0537    0.0000 </r>
       <r>   17.5645    0.0000 </r>
       <r>   17.5682    0.0000 </r>
      </set>
      <set comment="kpoint 16">
       <r>   -2.9901    1.0000 </r>
       <r>    0.7668    1.0000 </r>
       <r>    3.7081    1.0000 </r>
       <r>    6.1743    1.0000 </r>
       <r>    6.9539    1.0000 </r>
       <r>    7.5975    1.0000 </r>
       <r>    9.5194    1.0000 </r>
       <r>    9.7458    1.0000 </r>
       <r>   10.8930    0.0016 </r>
       <r>   12.3166    0.0000 </r>
       <r>   12.5742    0.0000 </r>
       <r>   13.0673    0.0000 </r>
       <r>   13.4784    0.0000 </r>
       <r>   16.0566    0.0000 </r>
       <r>   16.6475    0.0000 </r>
       <r>   18.3840    0.0000 </r>
      </set>
      <set comment="kpoint 17">
       <r>   -2.4656    1.0000 </r>
       <r>   -0.2084    1.0000 </r>
       <r>    4.2119    1.0000 </r>
       <r>    6.3399    1.0000 </r>
       <r>    6.6695    1.0000 </r>
       <r>    7.7684    1.0000 </r>
       <r>    8.8134    1.0000 </r>
       <r>    9.6123    1.0000 </r>
       <r>   10.3954    0.9971 </r>
       <r>   12.2257    0.0000 </r>
       <r>   13.0606    0.0000 </r>
       <r>   13.6507    0.0000 </r>
       <r>   14.4609    0.0000 </r>
       <r>   15.1540    0.0000 </r>
       <r>   15.7980    0.0000 </r>
       <r>   18.8698    0.0000 </r>
      </set>
      <set comment="kpoint 18">
       <r>   -1.8263    1.0000 </r>
       <r>   -1.0734    1.0000 </r>
       <r>    4.8242    1.0000 </r>
       <r>    5.5402    1.0000 </r>
       <r>    7.2746    1.0000 </r>
       <r>    7.9894    1.0000 </r>
       <r>    8.3307    1.0000 </r>
       <r>    8.9985    1.0000 </r>
       <r>   10.7977   -0.0026 </r>
       <r>   11.4560    0.0000 </r>
       <r>   13.6537    0.0000 </r>
       <r>   14.3397    0.0000 </r>
       <r>   14.3520    0.0000 </r>
       <r>   15.0297    0.0000 </r>
       <r>   16.2336    0.0000 </r>
       <r>   18.0871    0.0000 </r>
      </set>
      <set comment="kpoint 19">
       <r>   -3.1069    1.0000 </r>
       <r>    2.1331    1.0000 </r>
       <r>    2.1331    1.0000 </r>
       <r>    6.0643    1.0000 </r>
       <r>    6.8409    1.0000 </r>
       <r>    7.4990    1.0000 </r>
       <r>   10.8173    0.0035 </r>
       <r>   10.8173    0.0035 </r>
       <r>   11.0571    0.0000 </r>
       <r>   11.0571    0.0000 </r>
       <r>   12.1239    0.0000 </r>
       <r>   12.1239    0.0000 </r>
       <r>   14.7789    0.0000 </r>
       <r>   15.9596    0.0000 </r>
       <r>   16.6122    0.0000 </r>
       <r>   17.2498    0.0000 </r>
      </set>
      <set comment="kpoint 20">
       <r>   -2.6986    1.0000 </r>
       <r>    1.0524    1.0000 </r>
       <r>    2.5295    1.0000 </r>
       <r>    6.1220    1.0000 </r>
       <r>    6.4494    1.0000 </r>
       <r>    7.5594    1.0000 </r>
       <r>   10.0194    1.0000 </r>
       <r>   10.7910   -0.0062 </r>
       <r>   11.4385    0.0000 </r>
       <r>   11.5674    0.0000 </r>
       <r>   12.1480    0.0000 </r>
       <r>   12.9380    0.0000 </r>
       <r>   14.5145    0.0000 </r>
       <r>   14.9505    0.0000 </r>
       <r>   15.6927    0.0000 </r>
       <r>   18.2643    0.0000 </r>
      </set>
      <set comment="kpoint 21">
       <r>   -2.1749    1.0000 </r>
       <r>    0.0788    1.0000 </r>
       <r>    3.0377    1.0000 </r>
       <r>    5.2119    1.0000 </r>
       <r>    6.9445    1.0000 </r>
       <r>    8.0216    1.0000 </r>
       <r>    9.0876    1.0000 </r>
       <r>   10.0780    1.0000 </r>
       <r>   11.8690    0.0000 </r>
       <r>   11.9281    0.0000 </r>
       <r>   12.7823    0.0000 </r>
       <r>   13.8029    0.0000 </r>
       <r>   14.0385    0.0000 </r>
       <r>   14.6254    0.0000 </r>
       <r>   14.8408    0.0000 </r>
       <r>   19.9038    0.0000 </r>
      </set>
      <set comment="kpoint 22">
       <r>   -1.5366    1.0000 </r>
       <r>   -0.7849    1.0000 </r>
       <r>    3.6563    1.0000 </r>
       <r>    4.3829    1.0000 </r>
       <r>    7.5494    1.0000 </r>
       <r>    8.2638    1.0000 </r>
       <r>    8.6128    1.0000 </r>
       <r>    9.3064    1.0000 </r>
       <r>   12.4159    0.0000 </r>
       <r>   12.5254    0.0000 </r>
       <r>   13.0735    0.0000 </r>
       <r>   13.2295    0.0000 </r>
       <r>   13.3872    0.0000 </r>
       <r>   14.0708    0.0000 </r>
       <r>   16.4914    0.0000 </r>
       <r>   18.3716    0.0000 </r>
      </set>
      <set comment="kpoint 23">
       <r>   -2.2913    1.0000 </r>
       <r>    1.4515    1.0000 </r>
       <r>    1.4515    1.0000 </r>
       <r>    5.1015    1.0000 </r>
       <r>    6.8344    1.0000 </r>
       <r>    7.9151    1.0000 </r>
       <r>   10.4020    0.9966 </r>
       <r>   10.4020    0.9966 </r>
       <r>   11.3476    0.0000 </r>
       <r>   11.3476    0.0000 </r>
       <r>   13.1529    0.0000 </r>
       <r>   13.1529    0.0000 </r>
       <r>   13.9327    0.0000 </r>
       <r>   14.7692    0.0000 </r>
       <r>   15.4862    0.0000 </r>
       <r>   18.0566    0.0000 </r>
      </set>
      <set comment="kpoint 24">
       <r>   -1.7687    1.0000 </r>
       <r>    0.4800    1.0000 </r>
       <r>    1.9632    1.0000 </r>
       <r>    4.1600    1.0000 </r>
       <r>    7.3293    1.0000 </r>
       <r>    8.4026    1.0000 </r>
       <r>    9.4712    1.0000 </r>
       <r>   10.4904    1.0160 </r>
       <r>   10.8935    0.0015 </r>
       <r>   11.8592    0.0000 </r>
       <r>   13.0149    0.0000 </r>
       <r>   13.5893    0.0000 </r>
       <r>   13.9122    0.0000 </r>
       <r>   14.9585    0.0000 </r>
       <r>   15.3400    0.0000 </r>
       <r>   19.1468    0.0000 </r>
      </set>
      <set comment="kpoint 25">
       <r>   -1.1318    1.0000 </r>
       <r>   -0.3817    1.0000 </r>
       <r>    2.5865    1.0000 </r>
       <r>    3.3197    1.0000 </r>
       <r>    7.9339    1.0000 </r>
       <r>    8.6481    1.0000 </r>
       <r>    9.0006    1.0000 </r>
       <r>    9.7000    1.0000 </r>
       <r>   11.4934    0.0000 </r>
       <r>   12.2008    0.0000 </r>
       <r>   12.4522    0.0000 </r>
       <r>   13.1372    0.0000 </r>
       <r>   14.1335    0.0000 </r>
       <r>   14.7477    0.0000 </r>
       <r>   16.8253    0.0000 </r>
       <r>   18.6723    0.0000 </r>
      </set>
      <set comment="kpoint 26">
       <r>   -1.2475    1.0000 </r>
       <r>    0.9948    1.0000 </r>
       <r>    0.9948    1.0000 </r>
       <r>    3.2071    1.0000 </r>
       <r>    7.8239    1.0000 </r>
       <r>    8.8954    1.0000 </r>
       <r>    9.9640    1.0000 </r>
       <r>    9.9640    1.0000 </r>
       <r>   10.9866    0.0000 </r>
       <r>   10.9866    0.0000 </r>
       <r>   12.0923    0.0000 </r>
       <r>   13.0489    0.0000 </r>
       <r>   15.3918    0.0000 </r>
       <r>   15.3918    0.0000 </r>
       <r>   16.3887    0.0000 </r>
       <r>   19.0592    0.0000 </r>
      </set>
      <set comment="kpoint 27">
       <r>   -0.6124    1.0000 </r>
       <r>    0.1355    1.0000 </r>
       <r>    1.6219    1.0000 </r>
       <r>    2.3600    1.0000 </r>
       <r>    8.4282    1.0000 </r>
       <r>    9.1418    1.0000 </r>
       <r>    9.4943    1.0000 </r>
       <r>   10.1939    1.0000 </r>
       <r>   10.5655    1.0164 </r>
       <r>   11.2753    0.0000 </r>
       <r>   11.5794    0.0000 </r>
       <r>   12.2683    0.0000 </r>
       <r>   15.8907    0.0000 </r>
       <r>   16.3609    0.0000 </r>
       <r>   17.2133    0.0000 </r>
       <r>   18.9127    0.0000 </r>
      </set>
      <set comment="kpoint 28">
       <r>    0.0205    1.0000 </r>
       <r>    0.7658    1.0000 </r>
       <r>    0.7658    1.0000 </r>
       <r>    1.5078    1.0000 </r>
       <r>    9.0319    1.0000 </r>
       <r>    9.7446    1.0000 </r>
       <r>    9.7446    1.0000 </r>
       <r>   10.0918    1.0000 </r>
       <r>   10.4561    0.9977 </r>
       <r>   10.7890   -0.0075 </r>
       <r>   10.7890   -0.0075 </r>
       <r>   11.4823    0.0000 </r>
       <r>   17.4755    0.0000 </r>
       <r>   17.5630    0.0000 </r>
       <r>   17.5630    0.0000 </r>
       <r>   18.7226    0.0000 </r>
      </set>
      <set comment="kpoint 29">
       <r>   -3.9845    1.0000 </r>
       <r>    4.1857    1.0000 </r>
       <r>    4.1857    1.0000 </r>
       <r>    4.1857    1.0000 </r>
       <r>    7.2619    1.0000 </r>
       <r>    7.2619    1.0000 </r>
       <r>    7.2619    1.0000 </r>
       <r>   12.0075    0.0000 </r>
       <r>   12.0075    0.0000 </r>
       <r>   12.0075    0.0000 </r>
       <r>   14.0171    0.0000 </r>
       <r>   14.0171    0.0000 </r>
       <r>   14.0171    0.0000 </r>
       <r>   16.0479    0.0000 </r>
       <r>   16.0479    0.0000 </r>
       <r>   16.0479    0.0000 </r>
      </set>
      <set comment="kpoint 30">
       <r>   -3.8087    1.0000 </r>
       <r>    2.9205    1.0000 </r>
       <r>    4.3531    1.0000 </r>
       <r>    4.3531    1.0000 </r>
       <r>    7.4243    1.0000 </r>
       <r>    7.4243    1.0000 </r>
       <r>    8.8257    1.0000 </r>
       <r>   10.8200    0.0040 </r>
       <r>   10.8200    0.0040 </r>
       <r>   12.1714    0.0000 </r>
       <r>   13.5366    0.0000 </r>
       <r>   13.5366    0.0000 </r>
       <r>   14.1706    0.0000 </r>
       <r>   16.2174    0.0000 </r>
       <r>   17.0275    0.0000 </r>
       <r>   17.0275    0.0000 </r>
      </set>
      <set comment="kpoint 31">
       <r>   -3.5159    1.0000 </r>
       <r>    1.7357    1.0000 </r>
       <r>    4.6315    1.0000 </r>
       <r>    4.6315    1.0000 </r>
       <r>    7.6894    1.0000 </r>
       <r>    7.6894    1.0000 </r>
       <r>    9.7039    1.0000 </r>
       <r>    9.7039    1.0000 </r>
       <r>   10.5007    1.0253 </r>
       <r>   12.4476    0.0000 </r>
       <r>   12.6144    0.0000 </r>
       <r>   12.6144    0.0000 </r>
       <r>   14.4262    0.0000 </r>
       <r>   16.5003    0.0000 </r>
       <r>   17.1961    0.0000 </r>
       <r>   18.5446    0.0000 </r>
      </set>
      <set comment="kpoint 32">
       <r>   -3.1068    1.0000 </r>
       <r>    0.6525    1.0000 </r>
       <r>    5.0199    1.0000 </r>
       <r>    5.0199    1.0000 </r>
       <r>    8.0166    1.0000 </r>
       <r>    8.0166    1.0000 </r>
       <r>    8.7246    1.0000 </r>
       <r>    8.7246    1.0000 </r>
       <r>   11.6724    0.0000 </r>
       <r>   11.6724    0.0000 </r>
       <r>   12.2254    0.0000 </r>
       <r>   12.8680    0.0000 </r>
       <r>   14.7839    0.0000 </r>
       <r>   16.2222    0.0000 </r>
       <r>   16.8967    0.0000 </r>
       <r>   18.0828    0.0000 </r>
      </set>
      <set comment="kpoint 33">
       <r>   -2.5819    1.0000 </r>
       <r>   -0.3234    1.0000 </r>
       <r>    5.5155    1.0000 </r>
       <r>    5.5155    1.0000 </r>
       <r>    7.6610    1.0000 </r>
       <r>    7.6610    1.0000 </r>
       <r>    8.6295    1.0000 </r>
       <r>    8.6295    1.0000 </r>
       <r>   10.8028   -0.0004 </r>
       <r>   10.8028   -0.0004 </r>
       <r>   13.2408    0.0000 </r>
       <r>   14.1676    0.0000 </r>
       <r>   15.2432    0.0000 </r>
       <r>   15.3364    0.0000 </r>
       <r>   17.2252    0.0000 </r>
       <r>   17.4089    0.0000 </r>
      </set>
      <set comment="kpoint 34">
       <r>   -1.9422    1.0000 </r>
       <r>   -1.1889    1.0000 </r>
       <r>    6.1010    1.0000 </r>
       <r>    6.1010    1.0000 </r>
       <r>    6.8878    1.0000 </r>
       <r>    6.8878    1.0000 </r>
       <r>    9.1223    1.0000 </r>
       <r>    9.1223    1.0000 </r>
       <r>   10.0811    1.0000 </r>
       <r>   10.0811    1.0000 </r>
       <r>   13.8510    0.0000 </r>
       <r>   14.5456    0.0000 </r>
       <r>   15.8038    0.0000 </r>
       <r>   15.9953    0.0000 </r>
       <r>   16.4648    0.0000 </r>
       <r>   17.7207    0.0000 </r>
      </set>
      <set comment="kpoint 35">
       <r>   -3.6330    1.0000 </r>
       <r>    3.0895    1.0000 </r>
       <r>    3.0895    1.0000 </r>
       <r>    4.5199    1.0000 </r>
       <r>    7.5798    1.0000 </r>
       <r>    8.9805    1.0000 </r>
       <r>    8.9805    1.0000 </r>
       <r>    9.6278    1.0000 </r>
       <r>   10.9903    0.0000 </r>
       <r>   10.9903    0.0000 </r>
       <r>   13.6948    0.0000 </r>
       <r>   13.6948    0.0000 </r>
       <r>   14.3223    0.0000 </r>
       <r>   16.6724    0.0000 </r>
       <r>   17.1279    0.0000 </r>
       <r>   17.1930    0.0000 </r>
      </set>
      <set comment="kpoint 36">
       <r>   -3.3405    1.0000 </r>
       <r>    1.9061    1.0000 </r>
       <r>    3.3708    1.0000 </r>
       <r>    4.7970    1.0000 </r>
       <r>    7.7949    1.0000 </r>
       <r>    8.5554    1.0000 </r>
       <r>    9.2036    1.0000 </r>
       <r>    9.9110    1.0000 </r>
       <r>   10.6147    0.6973 </r>
       <r>   11.3060    0.0000 </r>
       <r>   12.7788    0.0000 </r>
       <r>   13.9455    0.0000 </r>
       <r>   13.9594    0.0000 </r>
       <r>   16.0619    0.0000 </r>
       <r>   17.4686    0.0000 </r>
       <r>   17.6192    0.0000 </r>
      </set>
      <set comment="kpoint 37">
       <r>   -2.9318    1.0000 </r>
       <r>    0.8239    1.0000 </r>
       <r>    3.7636    1.0000 </r>
       <r>    5.1816    1.0000 </r>
       <r>    7.3574    1.0000 </r>
       <r>    8.3411    1.0000 </r>
       <r>    8.7604    1.0000 </r>
       <r>    9.6885    1.0000 </r>
       <r>   11.5705    0.0000 </r>
       <r>   11.8477    0.0000 </r>
       <r>   12.4893    0.0000 </r>
       <r>   13.1216    0.0000 </r>
       <r>   14.3350    0.0000 </r>
       <r>   15.0752    0.0000 </r>
       <r>   17.6018    0.0000 </r>
       <r>   17.8541    0.0000 </r>
      </set>
      <set comment="kpoint 38">
       <r>   -2.4074    1.0000 </r>
       <r>   -0.1510    1.0000 </r>
       <r>    4.2663    1.0000 </r>
       <r>    5.6544    1.0000 </r>
       <r>    6.4850    1.0000 </r>
       <r>    7.8592    1.0000 </r>
       <r>    8.7904    1.0000 </r>
       <r>   10.0798    1.0000 </r>
       <r>   11.0300    0.0000 </r>
       <r>   12.0843    0.0000 </r>
       <r>   12.2823    0.0000 </r>
       <r>   14.1794    0.0000 </r>
       <r>   14.2327    0.0000 </r>
       <r>   14.8714    0.0000 </r>
       <r>   16.7471    0.0000 </r>
       <r>   18.3517    0.0000 </r>
      </set>
      <set comment="kpoint 39">
       <r>   -1.7683    1.0000 </r>
       <r>   -1.0157    1.0000 </r>
       <r>    4.8753    1.0000 </r>
       <r>    5.5675    1.0000 </r>
       <r>    6.3568    1.0000 </r>
       <r>    7.0441    1.0000 </r>
       <r>    9.3662    1.0000 </r>
       <r>    9.9923    1.0000 </r>
       <r>   10.9043    0.0010 </r>
       <r>   11.5189    0.0000 </r>
       <r>   12.6824    0.0000 </r>
       <r>   13.3807    0.0000 </r>
       <r>   15.2792    0.0000 </r>
       <r>   15.9773    0.0000 </r>
       <r>   16.2611    0.0000 </r>
       <r>   18.0427    0.0000 </r>
      </set>
      <set comment="kpoint 40">
       <r>   -3.0485    1.0000 </r>
       <r>    2.1896    1.0000 </r>
       <r>    2.1896    1.0000 </r>
       <r>    5.0700    1.0000 </r>
       <r>    7.2517    1.0000 </r>
       <r>    8.2377    1.0000 </r>
       <r>   10.0679    1.0000 </r>
       <r>   10.0679    1.0000 </r>
       <r>   10.9854    0.0000 </r>
       <r>   10.9854    0.0000 </r>
       <r>   13.0588    0.0000 </r>
       <r>   13.0588    0.0000 </r>
       <r>   14.8298    0.0000 </r>
       <r>   14.9824    0.0000 </r>
       <r>   17.3049    0.0000 </r>
       <r>   17.6177    0.0000 </r>
      </set>
      <set comment="kpoint 41">
       <r>   -2.6404    1.0000 </r>
       <r>    1.1094    1.0000 </r>
       <r>    2.5857    1.0000 </r>
       <r>    5.4304    1.0000 </r>
       <r>    6.2728    1.0000 </r>
       <r>    8.5823    1.0000 </r>
       <r>    9.0649    1.0000 </r>
       <r>   10.4781    1.0071 </r>
       <r>   11.2646    0.0000 </r>
       <r>   12.1847    0.0000 </r>
       <r>   12.6542    0.0000 </r>
       <r>   13.5022    0.0000 </r>
       <r>   13.9852    0.0000 </r>
       <r>   14.5668    0.0000 </r>
       <r>   16.7009    0.0000 </r>
       <r>   18.3175    0.0000 </r>
      </set>
      <set comment="kpoint 42">
       <r>   -2.1169    1.0000 </r>
       <r>    0.1361    1.0000 </r>
       <r>    3.0934    1.0000 </r>
       <r>    5.2367    1.0000 </r>
       <r>    6.0302    1.0000 </r>
       <r>    8.1410    1.0000 </r>
       <r>    9.0645    1.0000 </r>
       <r>   10.9741    0.0000 </r>
       <r>   11.0654    0.0000 </r>
       <r>   11.9738    0.0000 </r>
       <r>   13.0809    0.0000 </r>
       <r>   13.7563    0.0000 </r>
       <r>   13.8568    0.0000 </r>
       <r>   14.7101    0.0000 </r>
       <r>   15.8473    0.0000 </r>
       <r>   19.8240    0.0000 </r>
      </set>
      <set comment="kpoint 43">
       <r>   -1.4788    1.0000 </r>
       <r>   -0.7273    1.0000 </r>
       <r>    3.7107    1.0000 </r>
       <r>    4.4335    1.0000 </r>
       <r>    6.6074    1.0000 </r>
       <r>    7.3192    1.0000 </r>
       <r>    9.6548    1.0000 </r>
       <r>   10.3394    0.9996 </r>
       <r>   11.5731    0.0000 </r>
       <r>   12.2758    0.0000 </r>
       <r>   12.4783    0.0000 </r>
       <r>   13.1296    0.0000 </r>
       <r>   14.3892    0.0000 </r>
       <r>   15.0756    0.0000 </r>
       <r>   16.5359    0.0000 </r>
       <r>   18.3877    0.0000 </r>
      </set>
      <set comment="kpoint 44">
       <r>   -2.2332    1.0000 </r>
       <r>    1.5082    1.0000 </r>
       <r>    1.5082    1.0000 </r>
       <r>    5.1255    1.0000 </r>
       <r>    5.9208    1.0000 </r>
       <r>    8.9592    1.0000 </r>
       <r>    9.4552    1.0000 </r>
       <r>    9.4552    1.0000 </r>
       <r>   12.3281    0.0000 </r>
       <r>   12.3281    0.0000 </r>
       <r>   12.9791    0.0000 </r>
       <r>   13.2530    0.0000 </r>
       <r>   13.2530    0.0000 </r>
       <r>   15.5370    0.0000 </r>
       <r>   15.7851    0.0000 </r>
       <r>   18.1105    0.0000 </r>
      </set>
      <set comment="kpoint 45">
       <r>   -1.7108    1.0000 </r>
       <r>    0.5371    1.0000 </r>
       <r>    2.0195    1.0000 </r>
       <r>    4.2105    1.0000 </r>
       <r>    6.3875    1.0000 </r>
       <r>    8.5286    1.0000 </r>
       <r>    9.4476    1.0000 </r>
       <r>    9.9501    1.0000 </r>
       <r>   11.5146    0.0000 </r>
       <r>   12.0682    0.0000 </r>
       <r>   12.8744    0.0000 </r>
       <r>   13.6506    0.0000 </r>
       <r>   14.9289    0.0000 </r>
       <r>   15.0166    0.0000 </r>
       <r>   15.3917    0.0000 </r>
       <r>   19.1979    0.0000 </r>
      </set>
      <set comment="kpoint 46">
       <r>   -1.0741    1.0000 </r>
       <r>   -0.3243    1.0000 </r>
       <r>    2.6422    1.0000 </r>
       <r>    3.3741    1.0000 </r>
       <r>    6.9904    1.0000 </r>
       <r>    7.7057    1.0000 </r>
       <r>   10.0415    1.0000 </r>
       <r>   10.5512    1.0446 </r>
       <r>   10.7347   -0.0508 </r>
       <r>   11.2578    0.0000 </r>
       <r>   13.4698    0.0000 </r>
       <r>   14.1544    0.0000 </r>
       <r>   14.1889    0.0000 </r>
       <r>   14.8010    0.0000 </r>
       <r>   16.8728    0.0000 </r>
       <r>   18.7062    0.0000 </r>
      </set>
      <set comment="kpoint 47">
       <r>   -1.1898    1.0000 </r>
       <r>    1.0516    1.0000 </r>
       <r>    1.0516    1.0000 </r>
       <r>    3.2615    1.0000 </r>
       <r>    6.8804    1.0000 </r>
       <r>    9.0242    1.0000 </r>
       <r>    9.0242    1.0000 </r>
       <r>    9.9376    1.0000 </r>
       <r>   11.1520    0.0000 </r>
       <r>   12.0123    0.0000 </r>
       <r>   12.0123    0.0000 </r>
       <r>   14.0686    0.0000 </r>
       <r>   15.4456    0.0000 </r>
       <r>   15.4456    0.0000 </r>
       <r>   16.4388    0.0000 </r>
       <r>   19.1105    0.0000 </r>
      </set>
      <set comment="kpoint 48">
       <r>   -0.5549    1.0000 </r>
       <r>    0.1927    1.0000 </r>
       <r>    1.6783    1.0000 </r>
       <r>    2.4157    1.0000 </r>
       <r>    7.4865    1.0000 </r>
       <r>    8.2019    1.0000 </r>
       <r>    9.6275    1.0000 </r>
       <r>   10.3373    0.9997 </r>
       <r>   10.5319    1.0504 </r>
       <r>   11.2260    0.0000 </r>
       <r>   12.6031    0.0000 </r>
       <r>   13.2900    0.0000 </r>
       <r>   15.9426    0.0000 </r>
       <r>   16.4117    0.0000 </r>
       <r>   17.2616    0.0000 </r>
       <r>   18.9525    0.0000 </r>
      </set>
      <set comment="kpoint 49">
       <r>    0.0777    1.0000 </r>
       <r>    0.8227    1.0000 </r>
       <r>    0.8227    1.0000 </r>
       <r>    1.5643    1.0000 </r>
       <r>    8.0926    1.0000 </r>
       <r>    8.8069    1.0000 </r>
       <r>    8.8069    1.0000 </r>
       <r>    9.5194    1.0000 </r>
       <r>   11.1249    0.0000 </r>
       <r>   11.8175    0.0000 </r>
       <r>   11.8175    0.0000 </r>
       <r>   12.5073    0.0000 </r>
       <r>   17.5241    0.0000 </r>
       <r>   17.6112    0.0000 </r>
       <r>   17.6112    0.0000 </r>
       <r>   18.7661    0.0000 </r>
      </set>
      <set comment="kpoint 50">
       <r>   -3.4575    1.0000 </r>
       <r>    3.2582    1.0000 </r>
       <r>    3.2582    1.0000 </r>
       <r>    3.2582    1.0000 </r>
       <r>    9.0944    1.0000 </r>
       <r>    9.0944    1.0000 </r>
       <r>    9.0944    1.0000 </r>
       <r>    9.8393    1.0000 </r>
       <r>    9.8393    1.0000 </r>
       <r>    9.8393    1.0000 </r>
       <r>   14.4757    0.0000 </r>
       <r>   14.4757    0.0000 </r>
       <r>   14.4757    0.0000 </r>
       <r>   15.9821    0.0000 </r>
       <r>   16.8418    0.0000 </r>
       <r>   16.8418    0.0000 </r>
      </set>
      <set comment="kpoint 51">
       <r>   -3.1653    1.0000 </r>
       <r>    2.0761    1.0000 </r>
       <r>    3.5386    1.0000 </r>
       <r>    3.5386    1.0000 </r>
       <r>    8.5675    1.0000 </r>
       <r>    8.5675    1.0000 </r>
       <r>    9.5049    1.0000 </r>
       <r>    9.5049    1.0000 </r>
       <r>    9.9798    1.0000 </r>
       <r>   10.9053    0.0010 </r>
       <r>   14.1033    0.0000 </r>
       <r>   14.1033    0.0000 </r>
       <r>   14.7310    0.0000 </r>
       <r>   14.9004    0.0000 </r>
       <r>   17.1234    0.0000 </r>
       <r>   17.7825    0.0000 </r>
      </set>
      <set comment="kpoint 52">
       <r>   -2.7569    1.0000 </r>
       <r>    0.9952    1.0000 </r>
       <r>    3.9295    1.0000 </r>
       <r>    3.9295    1.0000 </r>
       <r>    7.5650    1.0000 </r>
       <r>    7.5650    1.0000 </r>
       <r>    9.8460    1.0000 </r>
       <r>    9.8460    1.0000 </r>
       <r>   10.3953    0.9971 </r>
       <r>   12.6360    0.0000 </r>
       <r>   13.2854    0.0000 </r>
       <r>   13.2854    0.0000 </r>
       <r>   13.9027    0.0000 </r>
       <r>   15.0881    0.0000 </r>
       <r>   17.5189    0.0000 </r>
       <r>   18.3729    0.0000 </r>
      </set>
      <set comment="kpoint 53">
       <r>   -2.2331    1.0000 </r>
       <r>    0.0212    1.0000 </r>
       <r>    4.4270    1.0000 </r>
       <r>    4.4270    1.0000 </r>
       <r>    6.6413    1.0000 </r>
       <r>    6.6413    1.0000 </r>
       <r>   10.3117    0.9999 </r>
       <r>   10.3117    0.9999 </r>
       <r>   10.8924    0.0016 </r>
       <r>   12.4563    0.0000 </r>
       <r>   12.4563    0.0000 </r>
       <r>   12.9990    0.0000 </r>
       <r>   14.4546    0.0000 </r>
       <r>   15.5466    0.0000 </r>
       <r>   17.5215    0.0000 </r>
       <r>   18.0342    0.0000 </r>
      </set>
      <set comment="kpoint 54">
       <r>   -1.5946    1.0000 </r>
       <r>   -0.8427    1.0000 </r>
       <r>    5.0055    1.0000 </r>
       <r>    5.0055    1.0000 </r>
       <r>    5.8477    1.0000 </r>
       <r>    5.8477    1.0000 </r>
       <r>   10.8342    0.0049 </r>
       <r>   10.8342    0.0049 </r>
       <r>   11.4916    0.0000 </r>
       <r>   11.7439    0.0000 </r>
       <r>   11.7439    0.0000 </r>
       <r>   12.1942    0.0000 </r>
       <r>   16.1059    0.0000 </r>
       <r>   16.2884    0.0000 </r>
       <r>   16.7648    0.0000 </r>
       <r>   17.9804    0.0000 </r>
      </set>
      <set comment="kpoint 55">
       <r>   -2.8736    1.0000 </r>
       <r>    2.3590    1.0000 </r>
       <r>    2.3590    1.0000 </r>
       <r>    3.8169    1.0000 </r>
       <r>    7.4613    1.0000 </r>
       <r>    8.8797    1.0000 </r>
       <r>    8.8797    1.0000 </r>
       <r>    9.7451    1.0000 </r>
       <r>   11.1395    0.0000 </r>
       <r>   11.1395    0.0000 </r>
       <r>   13.8060    0.0000 </r>
       <r>   14.3674    0.0000 </r>
       <r>   14.3674    0.0000 </r>
       <r>   14.9827    0.0000 </r>
       <r>   17.4709    0.0000 </r>
       <r>   18.0545    0.0000 </r>
      </set>
      <set comment="kpoint 56">
       <r>   -2.4659    1.0000 </r>
       <r>    1.2801    1.0000 </r>
       <r>    2.7540    1.0000 </r>
       <r>    4.2021    1.0000 </r>
       <r>    6.4291    1.0000 </r>
       <r>    7.8492    1.0000 </r>
       <r>    9.2720    1.0000 </r>
       <r>   10.1167    1.0000 </r>
       <r>   11.4938    0.0000 </r>
       <r>   12.7990    0.0000 </r>
       <r>   12.8834    0.0000 </r>
       <r>   13.5641    0.0000 </r>
       <r>   14.7240    0.0000 </r>
       <r>   14.7419    0.0000 </r>
       <r>   17.9660    0.0000 </r>
       <r>   18.4362    0.0000 </r>
      </set>
      <set comment="kpoint 57">
       <r>   -1.9428    1.0000 </r>
       <r>    0.3078    1.0000 </r>
       <r>    3.2595    1.0000 </r>
       <r>    4.6669    1.0000 </r>
       <r>    5.5266    1.0000 </r>
       <r>    6.9173    1.0000 </r>
       <r>    9.7680    1.0000 </r>
       <r>   10.5957    0.8617 </r>
       <r>   11.8877    0.0000 </r>
       <r>   11.9030    0.0000 </r>
       <r>   12.7912    0.0000 </r>
       <r>   14.0196    0.0000 </r>
       <r>   14.6392    0.0000 </r>
       <r>   15.2769    0.0000 </r>
       <r>   17.1332    0.0000 </r>
       <r>   18.9255    0.0000 </r>
      </set>
      <set comment="kpoint 58">
       <r>   -1.3054    1.0000 </r>
       <r>   -0.5546    1.0000 </r>
       <r>    3.8709    1.0000 </r>
       <r>    4.5600    1.0000 </r>
       <r>    5.4110    1.0000 </r>
       <r>    6.0945    1.0000 </r>
       <r>   10.3698    0.9987 </r>
       <r>   11.0770    0.0000 </r>
       <r>   11.1703    0.0000 </r>
       <r>   11.7930    0.0000 </r>
       <r>   12.7012    0.0000 </r>
       <r>   13.3024    0.0000 </r>
       <r>   15.6801    0.0000 </r>
       <r>   16.3732    0.0000 </r>
       <r>   16.6533    0.0000 </r>
       <r>   18.3888    0.0000 </r>
      </set>
      <set comment="kpoint 59">
       <r>   -2.0590    1.0000 </r>
       <r>    1.6781    1.0000 </r>
       <r>    1.6781    1.0000 </r>
       <r>    4.5539    1.0000 </r>
       <r>    5.4184    1.0000 </r>
       <r>    8.2383    1.0000 </r>
       <r>    8.2383    1.0000 </r>
       <r>   10.4950    1.0200 </r>
       <r>   11.7841    0.0000 </r>
       <r>   13.1764    0.0000 </r>
       <r>   13.1764    0.0000 </r>
       <r>   14.0058    0.0000 </r>
       <r>   14.0058    0.0000 </r>
       <r>   15.6891    0.0000 </r>
       <r>   17.1467    0.0000 </r>
       <r>   18.2715    0.0000 </r>
      </set>
      <set comment="kpoint 60">
       <r>   -1.5371    1.0000 </r>
       <r>    0.7083    1.0000 </r>
       <r>    2.1882    1.0000 </r>
       <r>    4.3353    1.0000 </r>
       <r>    5.1912    1.0000 </r>
       <r>    7.3050    1.0000 </r>
       <r>    8.7351    1.0000 </r>
       <r>   10.8665    0.0033 </r>
       <r>   10.9778    0.0000 </r>
       <r>   12.9435    0.0000 </r>
       <r>   13.8679    0.0000 </r>
       <r>   14.2625    0.0000 </r>
       <r>   15.2139    0.0000 </r>
       <r>   15.5472    0.0000 </r>
       <r>   16.3247    0.0000 </r>
       <r>   19.3506    0.0000 </r>
      </set>
      <set comment="kpoint 61">
       <r>   -0.9011    1.0000 </r>
       <r>   -0.1521    1.0000 </r>
       <r>    2.8085    1.0000 </r>
       <r>    3.5340    1.0000 </r>
       <r>    5.7634    1.0000 </r>
       <r>    6.4779    1.0000 </r>
       <r>    9.3397    1.0000 </r>
       <r>   10.0507    1.0000 </r>
       <r>   11.5606    0.0000 </r>
       <r>   12.2322    0.0000 </r>
       <r>   14.3592    0.0000 </r>
       <r>   14.8885    0.0000 </r>
       <r>   14.9618    0.0000 </r>
       <r>   15.5672    0.0000 </r>
       <r>   17.0119    0.0000 </r>
       <r>   18.7914    0.0000 </r>
      </set>
      <set comment="kpoint 62">
       <r>   -1.0168    1.0000 </r>
       <r>    1.2218    1.0000 </r>
       <r>    1.2218    1.0000 </r>
       <r>    3.4213    1.0000 </r>
       <r>    5.6527    1.0000 </r>
       <r>    7.8028    1.0000 </r>
       <r>    7.8028    1.0000 </r>
       <r>    9.9437    1.0000 </r>
       <r>   11.4621    0.0000 </r>
       <r>   13.4813    0.0000 </r>
       <r>   13.4813    0.0000 </r>
       <r>   15.5045    0.0000 </r>
       <r>   15.6092    0.0000 </r>
       <r>   15.6092    0.0000 </r>
       <r>   16.5890    0.0000 </r>
       <r>   19.2629    0.0000 </r>
      </set>
      <set comment="kpoint 63">
       <r>   -0.3826    1.0000 </r>
       <r>    0.3641    1.0000 </r>
       <r>    1.8471    1.0000 </r>
       <r>    2.5820    1.0000 </r>
       <r>    6.2571    1.0000 </r>
       <r>    6.9755    1.0000 </r>
       <r>    8.4095    1.0000 </r>
       <r>    9.1238    1.0000 </r>
       <r>   12.0464    0.0000 </r>
       <r>   12.7245    0.0000 </r>
       <r>   14.0704    0.0000 </r>
       <r>   14.7461    0.0000 </r>
       <r>   16.0987    0.0000 </r>
       <r>   16.5637    0.0000 </r>
       <r>   17.4046    0.0000 </r>
       <r>   19.0653    0.0000 </r>
      </set>
      <set comment="kpoint 64">
       <r>    0.2492    1.0000 </r>
       <r>    0.9931    1.0000 </r>
       <r>    0.9931    1.0000 </r>
       <r>    1.7332    1.0000 </r>
       <r>    6.8654    1.0000 </r>
       <r>    7.5838    1.0000 </r>
       <r>    7.5838    1.0000 </r>
       <r>    8.3005    1.0000 </r>
       <r>   12.6306    0.0000 </r>
       <r>   13.3089    0.0000 </r>
       <r>   13.3089    0.0000 </r>
       <r>   13.9856    0.0000 </r>
       <r>   17.6690    0.0000 </r>
       <r>   17.7548    0.0000 </r>
       <r>   17.7548    0.0000 </r>
       <r>   18.8937    0.0000 </r>
      </set>
      <set comment="kpoint 65">
       <r>   -2.5823    1.0000 </r>
       <r>    2.6407    1.0000 </r>
       <r>    2.6407    1.0000 </r>
       <r>    2.6407    1.0000 </r>
       <r>    7.7460    1.0000 </r>
       <r>    7.7460    1.0000 </r>
       <r>    7.7460    1.0000 </r>
       <r>   11.4047    0.0000 </r>
       <r>   11.4047    0.0000 </r>
       <r>   11.4047    0.0000 </r>
       <r>   12.7001    0.0000 </r>
       <r>   15.2373    0.0000 </r>
       <r>   15.2373    0.0000 </r>
       <r>   15.2373    0.0000 </r>
       <r>   17.7474    0.0000 </r>
       <r>   17.7474    0.0000 </r>
      </set>
      <set comment="kpoint 66">
       <r>   -2.1753    1.0000 </r>
       <r>    1.5641    1.0000 </r>
       <r>    3.0332    1.0000 </r>
       <r>    3.0332    1.0000 </r>
       <r>    6.7055    1.0000 </r>
       <r>    6.7055    1.0000 </r>
       <r>    8.1355    1.0000 </r>
       <r>   11.6840    0.0000 </r>
       <r>   11.7733    0.0000 </r>
       <r>   11.7733    0.0000 </r>
       <r>   13.1539    0.0000 </r>
       <r>   14.9865    0.0000 </r>
       <r>   14.9865    0.0000 </r>
       <r>   15.5933    0.0000 </r>
       <r>   18.1350    0.0000 </r>
       <r>   18.7425    0.0000 </r>
      </set>
      <set comment="kpoint 67">
       <r>   -1.6531    1.0000 </r>
       <r>    0.5937    1.0000 </r>
       <r>    3.5319    1.0000 </r>
       <r>    3.5319    1.0000 </r>
       <r>    5.7719    1.0000 </r>
       <r>    5.7719    1.0000 </r>
       <r>    8.6328    1.0000 </r>
       <r>   10.7657   -0.0265 </r>
       <r>   12.2360    0.0000 </r>
       <r>   12.2360    0.0000 </r>
       <r>   14.2965    0.0000 </r>
       <r>   14.2965    0.0000 </r>
       <r>   14.9606    0.0000 </r>
       <r>   16.0499    0.0000 </r>
       <r>   18.0069    0.0000 </r>
       <r>   18.6382    0.0000 </r>
      </set>
      <set comment="kpoint 68">
       <r>   -1.0167    1.0000 </r>
       <r>   -0.2672    1.0000 </r>
       <r>    4.1065    1.0000 </r>
       <r>    4.1065    1.0000 </r>
       <r>    4.9793    1.0000 </r>
       <r>    4.9793    1.0000 </r>
       <r>    9.2377    1.0000 </r>
       <r>    9.9493    1.0000 </r>
       <r>   12.7449    0.0000 </r>
       <r>   12.7449    0.0000 </r>
       <r>   13.6349    0.0000 </r>
       <r>   13.6349    0.0000 </r>
       <r>   16.6060    0.0000 </r>
       <r>   16.7646    0.0000 </r>
       <r>   17.2595    0.0000 </r>
       <r>   18.3892    0.0000 </r>
      </set>
      <set comment="kpoint 69">
       <r>   -1.7691    1.0000 </r>
       <r>    1.9606    1.0000 </r>
       <r>    1.9606    1.0000 </r>
       <r>    3.4187    1.0000 </r>
       <r>    5.6632    1.0000 </r>
       <r>    7.0937    1.0000 </r>
       <r>    7.0937    1.0000 </r>
       <r>   10.6606    0.2324 </r>
       <r>   12.1484    0.0000 </r>
       <r>   13.5081    0.0000 </r>
       <r>   13.5081    0.0000 </r>
       <r>   15.3588    0.0000 </r>
       <r>   15.3588    0.0000 </r>
       <r>   15.9422    0.0000 </r>
       <r>   18.4533    0.0000 </r>
       <r>   18.5386    0.0000 </r>
      </set>
      <set comment="kpoint 70">
       <r>   -1.2481    1.0000 </r>
       <r>    0.9931    1.0000 </r>
       <r>    2.4678    1.0000 </r>
       <r>    3.8791    1.0000 </r>
       <r>    4.7609    1.0000 </r>
       <r>    6.1557    1.0000 </r>
       <r>    7.5923    1.0000 </r>
       <r>    9.7363    1.0000 </r>
       <r>   12.6206    0.0000 </r>
       <r>   13.8998    0.0000 </r>
       <r>   14.7351    0.0000 </r>
       <r>   15.2420    0.0000 </r>
       <r>   15.8068    0.0000 </r>
       <r>   15.8903    0.0000 </r>
       <r>   17.6963    0.0000 </r>
       <r>   19.5855    0.0000 </r>
      </set>
      <set comment="kpoint 71">
       <r>   -0.6132    1.0000 </r>
       <r>    0.1344    1.0000 </r>
       <r>    3.0807    1.0000 </r>
       <r>    3.7672    1.0000 </r>
       <r>    4.6485    1.0000 </r>
       <r>    5.3295    1.0000 </r>
       <r>    8.1998    1.0000 </r>
       <r>    8.9151    1.0000 </r>
       <r>   13.1804    0.0000 </r>
       <r>   13.7780    0.0000 </r>
       <r>   14.6852    0.0000 </r>
       <r>   15.2349    0.0000 </r>
       <r>   16.2797    0.0000 </r>
       <r>   16.9621    0.0000 </r>
       <r>   17.2204    0.0000 </r>
       <r>   18.8549    0.0000 </r>
      </set>
      <set comment="kpoint 72">
       <r>   -0.7287    1.0000 </r>
       <r>    1.5048    1.0000 </r>
       <r>    1.5048    1.0000 </r>
       <r>    3.6537    1.0000 </r>
       <r>    4.5380    1.0000 </r>
       <r>    6.6543    1.0000 </r>
       <r>    6.6543    1.0000 </r>
       <r>    8.8070    1.0000 </r>
       <r>   13.0971    0.0000 </r>
       <r>   14.9789    0.0000 </r>
       <r>   14.9789    0.0000 </r>
       <r>   15.9111    0.0000 </r>
       <r>   15.9111    0.0000 </r>
       <r>   16.8382    0.0000 </r>
       <r>   16.9796    0.0000 </r>
       <r>   19.5125    0.0000 </r>
      </set>
      <set comment="kpoint 73">
       <r>   -0.0958    1.0000 </r>
       <r>    0.6494    1.0000 </r>
       <r>    2.1269    1.0000 </r>
       <r>    2.8542    1.0000 </r>
       <r>    5.1075    1.0000 </r>
       <r>    5.8239    1.0000 </r>
       <r>    7.2637    1.0000 </r>
       <r>    7.9820    1.0000 </r>
       <r>   13.6652    0.0000 </r>
       <r>   14.3108    0.0000 </r>
       <r>   15.5978    0.0000 </r>
       <r>   16.2592    0.0000 </r>
       <r>   16.3622    0.0000 </r>
       <r>   16.8169    0.0000 </r>
       <r>   17.6355    0.0000 </r>
       <r>   19.2217    0.0000 </r>
      </set>
      <set comment="kpoint 74">
       <r>    0.5346    1.0000 </r>
       <r>    1.2763    1.0000 </r>
       <r>    1.2763    1.0000 </r>
       <r>    2.0131    1.0000 </r>
       <r>    5.7130    1.0000 </r>
       <r>    6.4336    1.0000 </r>
       <r>    6.4336    1.0000 </r>
       <r>    7.1539    1.0000 </r>
       <r>   14.2364    0.0000 </r>
       <r>   14.8890    0.0000 </r>
       <r>   14.8890    0.0000 </r>
       <r>   15.5441    0.0000 </r>
       <r>   17.9075    0.0000 </r>
       <r>   17.9894    0.0000 </r>
       <r>   17.9894    0.0000 </r>
       <r>   19.0926    0.0000 </r>
      </set>
      <set comment="kpoint 75">
       <r>   -1.3640    1.0000 </r>
       <r>    2.3541    1.0000 </r>
       <r>    2.3541    1.0000 </r>
       <r>    2.3541    1.0000 </r>
       <r>    6.0471    1.0000 </r>
       <r>    6.0471    1.0000 </r>
       <r>    6.0471    1.0000 </r>
       <r>    9.6302    1.0000 </r>
       <r>   13.8809    0.0000 </r>
       <r>   13.8809    0.0000 </r>
       <r>   13.8809    0.0000 </r>
       <r>   16.2954    0.0000 </r>
       <r>   16.2954    0.0000 </r>
       <r>   16.2954    0.0000 </r>
       <r>   18.9099    0.0000 </r>
       <r>   18.9100    0.0000 </r>
      </set>
      <set comment="kpoint 76">
       <r>   -0.8442    1.0000 </r>
       <r>    1.3906    1.0000 </r>
       <r>    2.8535    1.0000 </r>
       <r>    2.8535    1.0000 </r>
       <r>    5.1101    1.0000 </r>
       <r>    5.1101    1.0000 </r>
       <r>    6.5460    1.0000 </r>
       <r>    8.7002    1.0000 </r>
       <r>   14.3318    0.0000 </r>
       <r>   14.3318    0.0000 </r>
       <r>   15.6582    0.0000 </r>
       <r>   16.1743    0.0000 </r>
       <r>   16.1743    0.0000 </r>
       <r>   16.7475    0.0000 </r>
       <r>   18.6561    0.0000 </r>
       <r>   19.3871    0.0000 </r>
      </set>
      <set comment="kpoint 77">
       <r>   -0.2110    1.0000 </r>
       <r>    0.5346    1.0000 </r>
       <r>    3.4250    1.0000 </r>
       <r>    3.4250    1.0000 </r>
       <r>    4.3192    1.0000 </r>
       <r>    4.3192    1.0000 </r>
       <r>    7.1558    1.0000 </r>
       <r>    7.8745    1.0000 </r>
       <r>   14.8115    0.0000 </r>
       <r>   14.8115    0.0000 </r>
       <r>   15.6650    0.0000 </r>
       <r>   15.6650    0.0000 </r>
       <r>   17.2957    0.0000 </r>
       <r>   17.4040    0.0000 </r>
       <r>   17.9350    0.0000 </r>
       <r>   18.8909    0.0000 </r>
      </set>
      <set comment="kpoint 78">
       <r>   -0.3262    1.0000 </r>
       <r>    1.8989    1.0000 </r>
       <r>    1.8989    1.0000 </r>
       <r>    3.3107    1.0000 </r>
       <r>    4.2091    1.0000 </r>
       <r>    5.6048    1.0000 </r>
       <r>    5.6048    1.0000 </r>
       <r>    7.7656    1.0000 </r>
       <r>   14.8002    0.0000 </r>
       <r>   16.0264    0.0000 </r>
       <r>   16.0264    0.0000 </r>
       <r>   16.6953    0.0000 </r>
       <r>   16.6953    0.0000 </r>
       <r>   17.1847    0.0000 </r>
       <r>   18.3654    0.0000 </r>
       <r>   19.8531    0.0000 </r>
      </set>
      <set comment="kpoint 79">
       <r>    0.3048    1.0000 </r>
       <r>    1.0474    1.0000 </r>
       <r>    2.5126    1.0000 </r>
       <r>    3.1969    1.0000 </r>
       <r>    4.0978    1.0000 </r>
       <r>    4.7767    1.0000 </r>
       <r>    6.2151    1.0000 </r>
       <r>    6.9364    1.0000 </r>
       <r>   15.3366    0.0000 </r>
       <r>   15.8872    0.0000 </r>
       <r>   16.7639    0.0000 </r>
       <r>   17.0609    0.0000 </r>
       <r>   17.1724    0.0000 </r>
       <r>   17.7155    0.0000 </r>
       <r>   17.9285    0.0000 </r>
       <r>   19.3331    0.0000 </r>
      </set>
      <set comment="kpoint 80">
       <r>    0.9328    1.0000 </r>
       <r>    1.6706    1.0000 </r>
       <r>    1.6706    1.0000 </r>
       <r>    2.3987    1.0000 </r>
       <r>    4.6654    1.0000 </r>
       <r>    5.3828    1.0000 </r>
       <r>    5.3828    1.0000 </r>
       <r>    6.1046    1.0000 </r>
       <r>   15.8901    0.0000 </r>
       <r>   16.4907    0.0000 </r>
       <r>   16.4907    0.0000 </r>
       <r>   17.1094    0.0000 </r>
       <r>   18.2332    0.0000 </r>
       <r>   18.3042    0.0000 </r>
       <r>   18.3042    0.0000 </r>
       <r>   19.3268    0.0000 </r>
      </set>
      <set comment="kpoint 81">
       <r>    0.1898    1.0000 </r>
       <r>    2.3986    1.0000 </r>
       <r>    2.3986    1.0000 </r>
       <r>    2.3986    1.0000 </r>
       <r>    4.6660    1.0000 </r>
       <r>    4.6660    1.0000 </r>
       <r>    4.6660    1.0000 </r>
       <r>    6.8268    1.0000 </r>
       <r>   16.5251    0.0000 </r>
       <r>   16.5251    0.0000 </r>
       <r>   16.5251    0.0000 </r>
       <r>   17.6245    0.0000 </r>
       <r>   17.6245    0.0000 </r>
       <r>   17.6245    0.0000 </r>
       <r>   19.3579    0.0000 </r>
       <r>   19.3579    0.0000 </r>
      </set>
      <set comment="kpoint 82">
       <r>    0.8181    1.0000 </r>
       <r>    1.5562    1.0000 </r>
       <r>    2.9678    1.0000 </r>
       <r>    2.9678    1.0000 </r>
       <r>    3.8767    1.0000 </r>
       <r>    3.8767    1.0000 </r>
       <r>    5.2723    1.0000 </r>
       <r>    5.9945    1.0000 </r>
       <r>   16.9642    0.0000 </r>
       <r>   16.9642    0.0000 </r>
       <r>   17.6609    0.0000 </r>
       <r>   17.6609    0.0000 </r>
       <r>   18.1500    0.0000 </r>
       <r>   18.1604    0.0000 </r>
       <r>   18.7429    0.0000 </r>
       <r>   19.3382    0.0000 </r>
      </set>
      <set comment="kpoint 83">
       <r>    1.4419    1.0000 </r>
       <r>    2.1704    1.0000 </r>
       <r>    2.1704    1.0000 </r>
       <r>    2.8532    1.0000 </r>
       <r>    3.7658    1.0000 </r>
       <r>    4.4433    1.0000 </r>
       <r>    4.4433    1.0000 </r>
       <r>    5.1612    1.0000 </r>
       <r>   17.5193    0.0000 </r>
       <r>   17.9852    0.0000 </r>
       <r>   17.9852    0.0000 </r>
       <r>   18.5419    0.0000 </r>
       <r>   18.6306    0.0000 </r>
       <r>   18.6716    0.0000 </r>
       <r>   18.6716    0.0000 </r>
       <r>   19.4954    0.0000 </r>
      </set>
      <set comment="kpoint 84">
       <r>    2.0561    1.0000 </r>
       <r>    2.7384    1.0000 </r>
       <r>    2.7384    1.0000 </r>
       <r>    2.7384    1.0000 </r>
       <r>    3.6549    1.0000 </r>
       <r>    3.6549    1.0000 </r>
       <r>    3.6549    1.0000 </r>
       <r>    4.3319    1.0000 </r>
       <r>   18.9199    0.0000 </r>
       <r>   18.9199    0.0000 </r>
       <r>   18.9199    0.0000 </r>
       <r>   19.0598    0.0000 </r>
       <r>   19.0598    0.0000 </r>
       <r>   19.0598    0.0000 </r>
       <r>   19.4106    0.0000 </r>
       <r>   19.4106    0.0000 </r>
      </set>
     </set>
    </set>
   </array>
  </eigenvalues>
  <separator name="orbital magnetization" >
   <v name="MAGDIPOLOUT">      0.00000000      0.00000000      0.00000000</v>
  </separator>
  <dos>
   <i name="efermi">     10.63386454 </i>
   <total>
    <array>
     <dimension dim="1">gridpoints</dimension>
     <dimension dim="2">spin</dimension>
     <field>energy</field>
     <field>total</field>
     <field>integrated</field>
     <set>
      <set comment="spin 1">
       <r>    -5.3637     0.0000     0.0000 </r>
       <r>    -5.2755     0.0000     0.0000 </r>
       <r>    -5.1872     0.0000     0.0000 </r>
       <r>    -5.0990     0.0000     0.0000 </r>
       <r>    -5.0107     0.0000     0.0000 </r>
       <r>    -4.9225     0.0000     0.0000 </r>
       <r>    -4.8343     0.0000     0.0000 </r>
       <r>    -4.7460     0.0000     0.0000 </r>
       <r>    -4.6578     0.0000     0.0000 </r>
       <r>    -4.5696     0.0000     0.0000 </r>
       <r>    -4.4813     0.0000     0.0000 </r>
       <r>    -4.3931     0.0001     0.0000 </r>
       <r>    -4.3049     0.0003     0.0000 </r>
       <r>    -4.2166    -0.0022    -0.0002 </r>
       <r>    -4.1284     0.0183     0.0014 </r>
       <r>    -4.0402     0.1227     0.0123 </r>
       <r>    -3.9519     0.1307     0.0238 </r>
       <r>    -3.8637     0.2160     0.0429 </r>
       <r>    -3.7754     0.3095     0.0702 </r>
       <r>    -3.6872     0.1177     0.0806 </r>
       <r>    -3.5990     0.3598     0.1123 </r>
       <r>    -3.5107     0.3847     0.1463 </r>
       <r>    -3.4225     0.2336     0.1669 </r>
       <r>    -3.3343     0.4847     0.2096 </r>
       <r>    -3.2460     0.2311     0.2300 </r>
       <r>    -3.1578     0.3402     0.2600 </r>
       <r>    -3.0696     0.5940     0.3125 </r>
       <r>    -2.9813     0.4056     0.3482 </r>
       <r>    -2.8931     0.5790     0.3993 </r>
       <r>    -2.8049     0.2514     0.4215 </r>
       <r>    -2.7166     0.2600     0.4445 </r>
       <r>    -2.6284     0.7806     0.5133 </r>
       <r>    -2.5401     0.5344     0.5605 </r>
       <r>    -2.4519     0.5670     0.6105 </r>
       <r>    -2.3637     0.6775     0.6703 </r>
       <r>    -2.2754     0.1473     0.6833 </r>
       <r>    -2.1872     0.6281     0.7387 </r>
       <r>    -2.0990     0.7553     0.8054 </r>
       <r>    -2.0107     0.5053     0.8499 </r>
       <r>    -1.9225     0.6773     0.9097 </r>
       <r>    -1.8343     0.3372     0.9395 </r>
       <r>    -1.7460     0.9315     1.0217 </r>
       <r>    -1.6578     0.7960     1.0919 </r>
       <r>    -1.5696     0.4525     1.1318 </r>
       <r>    -1.4813     0.8975     1.2110 </r>
       <r>    -1.3931     0.2896     1.2366 </r>
       <r>    -1.3048     0.3489     1.2673 </r>
       <r>    -1.2166     1.0960     1.3640 </r>
       <r>    -1.1284     0.6887     1.4248 </r>
       <r>    -1.0401     0.9776     1.5111 </r>
       <r>    -0.9519     0.8924     1.5898 </r>
       <r>    -0.8637     0.5140     1.6352 </r>
       <r>    -0.7754     0.6677     1.6941 </r>
       <r>    -0.6872     0.6393     1.7505 </r>
       <r>    -0.5990     0.7245     1.8144 </r>
       <r>    -0.5107     1.0447     1.9066 </r>
       <r>    -0.4225     0.2230     1.9263 </r>
       <r>    -0.3343     1.2217     2.0341 </r>
       <r>    -0.2460     0.9445     2.1174 </r>
       <r>    -0.1578     0.9043     2.1972 </r>
       <r>    -0.0695     0.9810     2.2837 </r>
       <r>     0.0187     0.2403     2.3049 </r>
       <r>     0.1069     0.8634     2.3811 </r>
       <r>     0.1952     1.3612     2.5012 </r>
       <r>     0.2834     0.7977     2.5716 </r>
       <r>     0.3716     1.0288     2.6624 </r>
       <r>     0.4599     0.2709     2.6863 </r>
       <r>     0.5481     0.8501     2.7613 </r>
       <r>     0.6363     1.1241     2.8605 </r>
       <r>     0.7246     0.8611     2.9365 </r>
       <r>     0.8128     1.1109     3.0345 </r>
       <r>     0.9010     0.7745     3.1028 </r>
       <r>     0.9893     0.8936     3.1817 </r>
       <r>     1.0775     1.9426     3.3531 </r>
       <r>     1.1658     0.6232     3.4081 </r>
       <r>     1.2540     0.6464     3.4651 </r>
       <r>     1.3422     0.8441     3.5396 </r>
       <r>     1.4305     0.3220     3.5680 </r>
       <r>     1.5187     1.1775     3.6719 </r>
       <r>     1.6069     1.1415     3.7726 </r>
       <r>     1.6952     1.5462     3.9090 </r>
       <r>     1.7834     0.9476     3.9927 </r>
       <r>     1.8716     0.6933     4.0538 </r>
       <r>     1.9599     1.4037     4.1777 </r>
       <r>     2.0481     1.0337     4.2689 </r>
       <r>     2.1363     0.9986     4.3570 </r>
       <r>     2.2246     1.4794     4.4875 </r>
       <r>     2.3128     0.2397     4.5087 </r>
       <r>     2.4011     1.2025     4.6148 </r>
       <r>     2.4893     1.2121     4.7217 </r>
       <r>     2.5775     1.2582     4.8328 </r>
       <r>     2.6658     1.2808     4.9458 </r>
       <r>     2.7540     0.5568     4.9949 </r>
       <r>     2.8422     1.3655     5.1154 </r>
       <r>     2.9305     1.2573     5.2263 </r>
       <r>     3.0187     0.8148     5.2982 </r>
       <r>     3.1069     1.7197     5.4500 </r>
       <r>     3.1952     0.7872     5.5194 </r>
       <r>     3.2834     1.1163     5.6179 </r>
       <r>     3.3716     1.4657     5.7473 </r>
       <r>     3.4599     1.2880     5.8609 </r>
       <r>     3.5481     1.0752     5.9558 </r>
       <r>     3.6364     0.7879     6.0253 </r>
       <r>     3.7246     1.1130     6.1235 </r>
       <r>     3.8128     1.4082     6.2478 </r>
       <r>     3.9011     1.4767     6.3781 </r>
       <r>     3.9893     0.7180     6.4414 </r>
       <r>     4.0775     0.2261     6.4614 </r>
       <r>     4.1658     1.3752     6.5827 </r>
       <r>     4.2540     1.7330     6.7356 </r>
       <r>     4.3422     1.5583     6.8731 </r>
       <r>     4.4305     1.6262     7.0166 </r>
       <r>     4.5187     1.1151     7.1150 </r>
       <r>     4.6069     1.2783     7.2278 </r>
       <r>     4.6952     1.5883     7.3679 </r>
       <r>     4.7834     1.1661     7.4708 </r>
       <r>     4.8717     1.0655     7.5648 </r>
       <r>     4.9599     0.5919     7.6171 </r>
       <r>     5.0481     1.3215     7.7337 </r>
       <r>     5.1364     1.6097     7.8757 </r>
       <r>     5.2246     1.8515     8.0391 </r>
       <r>     5.3128     1.0069     8.1279 </r>
       <r>     5.4011     1.2986     8.2425 </r>
       <r>     5.4893     1.4642     8.3717 </r>
       <r>     5.5775     1.6115     8.5139 </r>
       <r>     5.6658     1.5186     8.6479 </r>
       <r>     5.7540     1.0513     8.7407 </r>
       <r>     5.8422     1.4198     8.8659 </r>
       <r>     5.9305     0.6019     8.9190 </r>
       <r>     6.0187     0.7283     8.9833 </r>
       <r>     6.1070     1.9681     9.1570 </r>
       <r>     6.1952     1.6610     9.3035 </r>
       <r>     6.2834     1.2134     9.4106 </r>
       <r>     6.3717     1.2546     9.5213 </r>
       <r>     6.4599     1.9299     9.6916 </r>
       <r>     6.5481     1.5551     9.8288 </r>
       <r>     6.6364     1.2057     9.9352 </r>
       <r>     6.7246     1.4496    10.0631 </r>
       <r>     6.8128     0.5459    10.1112 </r>
       <r>     6.9011     1.2486    10.2214 </r>
       <r>     6.9893     2.3299    10.4270 </r>
       <r>     7.0775     1.3209    10.5435 </r>
       <r>     7.1658     0.8984    10.6228 </r>
       <r>     7.2540     1.0235    10.7131 </r>
       <r>     7.3423     2.1268    10.9008 </r>
       <r>     7.4305     1.2858    11.0142 </r>
       <r>     7.5187     0.9843    11.1011 </r>
       <r>     7.6070     2.0014    11.2777 </r>
       <r>     7.6952     1.6437    11.4227 </r>
       <r>     7.7834     1.6001    11.5639 </r>
       <r>     7.8717     2.2141    11.7592 </r>
       <r>     7.9599     1.2160    11.8665 </r>
       <r>     8.0481     1.2873    11.9801 </r>
       <r>     8.1364     0.8953    12.0591 </r>
       <r>     8.2246     1.6012    12.2004 </r>
       <r>     8.3128     1.2757    12.3130 </r>
       <r>     8.4011     1.0648    12.4069 </r>
       <r>     8.4893     1.0167    12.4966 </r>
       <r>     8.5776     1.5329    12.6319 </r>
       <r>     8.6658     2.2983    12.8347 </r>
       <r>     8.7540     1.7818    12.9919 </r>
       <r>     8.8423     2.1271    13.1796 </r>
       <r>     8.9305     1.2692    13.2916 </r>
       <r>     9.0187     1.6102    13.4336 </r>
       <r>     9.1070     2.2153    13.6291 </r>
       <r>     9.1952     1.5490    13.7658 </r>
       <r>     9.2834     0.9739    13.8517 </r>
       <r>     9.3717     0.9787    13.9381 </r>
       <r>     9.4599     1.2864    14.0516 </r>
       <r>     9.5481     1.8001    14.2104 </r>
       <r>     9.6364     1.4099    14.3348 </r>
       <r>     9.7246     2.3875    14.5455 </r>
       <r>     9.8129     1.7808    14.7026 </r>
       <r>     9.9011     1.0618    14.7963 </r>
       <r>     9.9893     2.1064    14.9822 </r>
       <r>    10.0776     2.7498    15.2248 </r>
       <r>    10.1658     1.6111    15.3669 </r>
       <r>    10.2540     0.0432    15.3708 </r>
       <r>    10.3423     1.1067    15.4684 </r>
       <r>    10.4305     1.7434    15.6222 </r>
       <r>    10.5187     1.6125    15.7645 </r>
       <r>    10.6070     2.1403    15.9534 </r>
       <r>    10.6952     1.2567    16.0643 </r>
       <r>    10.7835     1.7532    16.2189 </r>
       <r>    10.8717     2.7770    16.4640 </r>
       <r>    10.9599     2.0615    16.6459 </r>
       <r>    11.0482     2.3153    16.8502 </r>
       <r>    11.1364     1.6080    16.9921 </r>
       <r>    11.2246     1.3456    17.1108 </r>
       <r>    11.3129     1.5776    17.2500 </r>
       <r>    11.4011     0.5967    17.3026 </r>
       <r>    11.4893     1.4421    17.4299 </r>
       <r>    11.5776     2.8643    17.6826 </r>
       <r>    11.6658     1.5718    17.8213 </r>
       <r>    11.7540     1.2240    17.9293 </r>
       <r>    11.8423     2.3037    18.1326 </r>
       <r>    11.9305     1.9578    18.3053 </r>
       <r>    12.0188     1.4761    18.4356 </r>
       <r>    12.1070     1.6083    18.5775 </r>
       <r>    12.1952     2.0636    18.7596 </r>
       <r>    12.2835     2.9464    19.0195 </r>
       <r>    12.3717     1.1417    19.1203 </r>
       <r>    12.4599     1.0664    19.2144 </r>
       <r>    12.5482     1.7987    19.3731 </r>
       <r>    12.6364     2.2249    19.5694 </r>
       <r>    12.7246     2.3942    19.7806 </r>
       <r>    12.8129     2.2227    19.9768 </r>
       <r>    12.9011     1.5174    20.1107 </r>
       <r>    12.9893     1.3751    20.2320 </r>
       <r>    13.0776     2.0866    20.4161 </r>
       <r>    13.1658     2.8493    20.6675 </r>
       <r>    13.2541     1.9369    20.8384 </r>
       <r>    13.3423     1.9638    21.0117 </r>
       <r>    13.4305     1.1138    21.1100 </r>
       <r>    13.5188     2.3887    21.3207 </r>
       <r>    13.6070     1.8636    21.4852 </r>
       <r>    13.6952     2.0256    21.6639 </r>
       <r>    13.7835     1.4072    21.7881 </r>
       <r>    13.8717     1.9852    21.9632 </r>
       <r>    13.9599     2.9531    22.2238 </r>
       <r>    14.0482     2.8380    22.4742 </r>
       <r>    14.1364     1.9798    22.6489 </r>
       <r>    14.2246     2.0268    22.8277 </r>
       <r>    14.3129     2.7619    23.0714 </r>
       <r>    14.4011     3.0598    23.3414 </r>
       <r>    14.4894     1.1102    23.4394 </r>
       <r>    14.5776     0.8189    23.5116 </r>
       <r>    14.6658     1.0176    23.6014 </r>
       <r>    14.7541     2.8716    23.8548 </r>
       <r>    14.8423     3.0688    24.1256 </r>
       <r>    14.9305     2.5521    24.3508 </r>
       <r>    15.0188     3.0101    24.6164 </r>
       <r>    15.1070     1.6040    24.7579 </r>
       <r>    15.1952     0.9777    24.8442 </r>
       <r>    15.2835     2.3101    25.0480 </r>
       <r>    15.3717     1.9896    25.2236 </r>
       <r>    15.4599     1.1746    25.3272 </r>
       <r>    15.5482     1.5479    25.4638 </r>
       <r>    15.6364     2.3552    25.6716 </r>
       <r>    15.7247     1.5472    25.8081 </r>
       <r>    15.8129     0.9916    25.8956 </r>
       <r>    15.9011     2.3023    26.0988 </r>
       <r>    15.9894     2.5559    26.3243 </r>
       <r>    16.0776     2.3903    26.5352 </r>
       <r>    16.1658     1.1967    26.6408 </r>
       <r>    16.2541     1.6289    26.7845 </r>
       <r>    16.3423     2.4756    27.0029 </r>
       <r>    16.4305     1.8998    27.1706 </r>
       <r>    16.5188     1.7596    27.3258 </r>
       <r>    16.6070     1.6211    27.4689 </r>
       <r>    16.6952     1.8389    27.6311 </r>
       <r>    16.7835     2.2089    27.8260 </r>
       <r>    16.8717     1.7147    27.9773 </r>
       <r>    16.9600     1.3459    28.0961 </r>
       <r>    17.0482     1.9033    28.2640 </r>
       <r>    17.1364     1.7265    28.4164 </r>
       <r>    17.2247     2.5795    28.6440 </r>
       <r>    17.3129     1.6913    28.7932 </r>
       <r>    17.4011     0.7977    28.8636 </r>
       <r>    17.4894     1.3830    28.9856 </r>
       <r>    17.5776     2.3020    29.1887 </r>
       <r>    17.6658     2.9492    29.4490 </r>
       <r>    17.7541     2.1583    29.6394 </r>
       <r>    17.8423     1.0120    29.7287 </r>
       <r>    17.9305     1.0030    29.8172 </r>
       <r>    18.0188     2.3749    30.0267 </r>
       <r>    18.1070     1.8581    30.1907 </r>
       <r>    18.1953     0.9905    30.2781 </r>
       <r>    18.2835     0.8316    30.3515 </r>
       <r>    18.3717     2.2615    30.5510 </r>
       <r>    18.4600     2.1588    30.7415 </r>
       <r>    18.5482     0.7336    30.8062 </r>
       <r>    18.6364     0.7816    30.8752 </r>
       <r>    18.7247     1.6137    31.0176 </r>
       <r>    18.8129     1.1643    31.1203 </r>
       <r>    18.9011     1.4970    31.2524 </r>
       <r>    18.9894     1.5226    31.3867 </r>
       <r>    19.0776     0.7457    31.4525 </r>
       <r>    19.1658     0.9807    31.5391 </r>
       <r>    19.2541     0.8617    31.6151 </r>
       <r>    19.3423     1.2239    31.7231 </r>
       <r>    19.4306     1.1389    31.8236 </r>
       <r>    19.5188     0.3468    31.8542 </r>
       <r>    19.6070     0.5461    31.9024 </r>
       <r>    19.6953     0.1217    31.9131 </r>
       <r>    19.7835     0.0376    31.9164 </r>
       <r>    19.8717     0.6322    31.9722 </r>
       <r>    19.9600     0.3306    32.0014 </r>
       <r>    20.0482    -0.0151    32.0001 </r>
       <r>    20.1364    -0.0017    31.9999 </r>
       <r>    20.2247     0.0010    32.0000 </r>
       <r>    20.3129     0.0000    32.0000 </r>
       <r>    20.4011     0.0000    32.0000 </r>
       <r>    20.4894     0.0000    32.0000 </r>
       <r>    20.5776     0.0000    32.0000 </r>
       <r>    20.6659     0.0000    32.0000 </r>
       <r>    20.7541     0.0000    32.0000 </r>
       <r>    20.8423     0.0000    32.0000 </r>
       <r>    20.9306     0.0000    32.0000 </r>
       <r>    21.0188     0.0000    32.0000 </r>
       <r>    21.1070     0.0000    32.0000 </r>
      </set>
     </set>
    </array>
   </total>
  </dos>
 </calculation>
 <structure name="finalpos" >
  <crystal>
   <varray name="basis" >
    <v>       3.82887966       0.00000000       0.00000000 </v>
    <v>       0.00000000       3.82887966       0.00000000 </v>
    <v>       0.00000000       0.00000000       3.82887966 </v>
   </varray>
   <i name="volume">     56.13259886 </i>
   <varray name="rec_basis" >
    <v>       0.26117300       0.00000000       0.00000000 </v>
    <v>       0.00000000       0.26117300       0.00000000 </v>
    <v>       0.00000000       0.00000000       0.26117300 </v>
   </varray>
  </crystal>
  <varray name="positions" >
   <v>       0.00000000       0.00000000       0.00000000 </v>
   <v>       0.50000000       0.50000000       0.00000000 </v>
   <v>       0.50000000       0.00000000       0.50000000 </v>
   <v>       0.00000000       0.50000000       0.50000000 </v>
  </varray>
 </structure>
</modeling>
