<?xml version="1.0" encoding="ISO-8859-1"?>
<modeling>
 <generator>
  <i name="program" type="string">vasp </i>
  <i name="version" type="string">5.4.1  </i>
  <i name="subversion" type="string">24Jun15 (build Jul  8 2015 13:29:37) complex                          parallel </i>
  <i name="platform" type="string">FX10FRT </i>
  <i name="date" type="string">2016 02 20 </i>
  <i name="time" type="string">07:01:11 </i>
 </generator>
 <incar>
  <i type="string" name="PREC">accurate</i>
  <i type="string" name="ALGO"> Normal</i>
  <i type="int" name="ISPIN">     1</i>
  <i type="int" name="IBRION">    -1</i>
  <i name="EDIFF">      0.00010000</i>
  <i type="int" name="NSW">     0</i>
  <i type="int" name="ISIF">     2</i>
  <i name="ENCUT">    400.00000000</i>
  <i type="int" name="ISMEAR">     2</i>
  <i name="SIGMA">      0.10000000</i>
  <i type="int" name="NWRITE">     1</i>
  <v type="int" name="KPOINT_BSE">    -1     0     0     0</v>
 </incar>
 <kpoints>
  <generation param="Monkhorst-Pack">
   <v type="int" name="divisions">      16       16       16 </v>
   <v name="usershift">      0.00000000       0.00000000       0.00000000 </v>
   <v name="genvec1">      0.06250000       0.00000000       0.00000000 </v>
   <v name="genvec2">      0.00000000       0.06250000       0.00000000 </v>
   <v name="genvec3">      0.00000000       0.00000000       0.06250000 </v>
   <v name="shift">      0.50000000       0.50000000       0.50000000 </v>
  </generation>
  <varray name="kpointlist" >
   <v>       0.03125000       0.03125000       0.03125000 </v>
   <v>       0.09375000       0.03125000       0.03125000 </v>
   <v>       0.15625000       0.03125000       0.03125000 </v>
   <v>       0.21875000       0.03125000       0.03125000 </v>
   <v>       0.28125000       0.03125000       0.03125000 </v>
   <v>       0.34375000       0.03125000       0.03125000 </v>
   <v>       0.40625000       0.03125000       0.03125000 </v>
   <v>       0.46875000       0.03125000       0.03125000 </v>
   <v>       0.03125000       0.09375000       0.03125000 </v>
   <v>       0.09375000       0.09375000       0.03125000 </v>
   <v>       0.15625000       0.09375000       0.03125000 </v>
   <v>       0.21875000       0.09375000       0.03125000 </v>
   <v>       0.28125000       0.09375000       0.03125000 </v>
   <v>       0.34375000       0.09375000       0.03125000 </v>
   <v>       0.40625000       0.09375000       0.03125000 </v>
   <v>       0.46875000       0.09375000       0.03125000 </v>
   <v>       0.03125000       0.15625000       0.03125000 </v>
   <v>       0.09375000       0.15625000       0.03125000 </v>
   <v>       0.15625000       0.15625000       0.03125000 </v>
   <v>       0.21875000       0.15625000       0.03125000 </v>
   <v>       0.28125000       0.15625000       0.03125000 </v>
   <v>       0.34375000       0.15625000       0.03125000 </v>
   <v>       0.40625000       0.15625000       0.03125000 </v>
   <v>       0.46875000       0.15625000       0.03125000 </v>
   <v>       0.03125000       0.21875000       0.03125000 </v>
   <v>       0.09375000       0.21875000       0.03125000 </v>
   <v>       0.15625000       0.21875000       0.03125000 </v>
   <v>       0.21875000       0.21875000       0.03125000 </v>
   <v>       0.28125000       0.21875000       0.03125000 </v>
   <v>       0.34375000       0.21875000       0.03125000 </v>
   <v>       0.40625000       0.21875000       0.03125000 </v>
   <v>       0.46875000       0.21875000       0.03125000 </v>
   <v>       0.03125000       0.28125000       0.03125000 </v>
   <v>       0.09375000       0.28125000       0.03125000 </v>
   <v>       0.15625000       0.28125000       0.03125000 </v>
   <v>       0.21875000       0.28125000       0.03125000 </v>
   <v>       0.28125000       0.28125000       0.03125000 </v>
   <v>       0.34375000       0.28125000       0.03125000 </v>
   <v>       0.40625000       0.28125000       0.03125000 </v>
   <v>       0.46875000       0.28125000       0.03125000 </v>
   <v>       0.03125000       0.34375000       0.03125000 </v>
   <v>       0.09375000       0.34375000       0.03125000 </v>
   <v>       0.15625000       0.34375000       0.03125000 </v>
   <v>       0.21875000       0.34375000       0.03125000 </v>
   <v>       0.28125000       0.34375000       0.03125000 </v>
   <v>       0.34375000       0.34375000       0.03125000 </v>
   <v>       0.40625000       0.34375000       0.03125000 </v>
   <v>       0.46875000       0.34375000       0.03125000 </v>
   <v>       0.03125000       0.40625000       0.03125000 </v>
   <v>       0.09375000       0.40625000       0.03125000 </v>
   <v>       0.15625000       0.40625000       0.03125000 </v>
   <v>       0.21875000       0.40625000       0.03125000 </v>
   <v>       0.28125000       0.40625000       0.03125000 </v>
   <v>       0.34375000       0.40625000       0.03125000 </v>
   <v>       0.40625000       0.40625000       0.03125000 </v>
   <v>       0.46875000       0.40625000       0.03125000 </v>
   <v>       0.03125000       0.46875000       0.03125000 </v>
   <v>       0.09375000       0.46875000       0.03125000 </v>
   <v>       0.15625000       0.46875000       0.03125000 </v>
   <v>       0.21875000       0.46875000       0.03125000 </v>
   <v>       0.28125000       0.46875000       0.03125000 </v>
   <v>       0.34375000       0.46875000       0.03125000 </v>
   <v>       0.40625000       0.46875000       0.03125000 </v>
   <v>       0.46875000       0.46875000       0.03125000 </v>
   <v>       0.03125000       0.09375000       0.09375000 </v>
   <v>       0.09375000       0.09375000       0.09375000 </v>
   <v>       0.15625000       0.09375000       0.09375000 </v>
   <v>       0.21875000       0.09375000       0.09375000 </v>
   <v>       0.28125000       0.09375000       0.09375000 </v>
   <v>       0.34375000       0.09375000       0.09375000 </v>
   <v>       0.40625000       0.09375000       0.09375000 </v>
   <v>       0.46875000       0.09375000       0.09375000 </v>
   <v>       0.03125000       0.15625000       0.09375000 </v>
   <v>       0.09375000       0.15625000       0.09375000 </v>
   <v>       0.15625000       0.15625000       0.09375000 </v>
   <v>       0.21875000       0.15625000       0.09375000 </v>
   <v>       0.28125000       0.15625000       0.09375000 </v>
   <v>       0.34375000       0.15625000       0.09375000 </v>
   <v>       0.40625000       0.15625000       0.09375000 </v>
   <v>       0.46875000       0.15625000       0.09375000 </v>
   <v>       0.03125000       0.21875000       0.09375000 </v>
   <v>       0.09375000       0.21875000       0.09375000 </v>
   <v>       0.15625000       0.21875000       0.09375000 </v>
   <v>       0.21875000       0.21875000       0.09375000 </v>
   <v>       0.28125000       0.21875000       0.09375000 </v>
   <v>       0.34375000       0.21875000       0.09375000 </v>
   <v>       0.40625000       0.21875000       0.09375000 </v>
   <v>       0.46875000       0.21875000       0.09375000 </v>
   <v>       0.03125000       0.28125000       0.09375000 </v>
   <v>       0.09375000       0.28125000       0.09375000 </v>
   <v>       0.15625000       0.28125000       0.09375000 </v>
   <v>       0.21875000       0.28125000       0.09375000 </v>
   <v>       0.28125000       0.28125000       0.09375000 </v>
   <v>       0.34375000       0.28125000       0.09375000 </v>
   <v>       0.40625000       0.28125000       0.09375000 </v>
   <v>       0.46875000       0.28125000       0.09375000 </v>
   <v>       0.03125000       0.34375000       0.09375000 </v>
   <v>       0.09375000       0.34375000       0.09375000 </v>
   <v>       0.15625000       0.34375000       0.09375000 </v>
   <v>       0.21875000       0.34375000       0.09375000 </v>
   <v>       0.28125000       0.34375000       0.09375000 </v>
   <v>       0.34375000       0.34375000       0.09375000 </v>
   <v>       0.40625000       0.34375000       0.09375000 </v>
   <v>       0.46875000       0.34375000       0.09375000 </v>
   <v>       0.03125000       0.40625000       0.09375000 </v>
   <v>       0.09375000       0.40625000       0.09375000 </v>
   <v>       0.15625000       0.40625000       0.09375000 </v>
   <v>       0.21875000       0.40625000       0.09375000 </v>
   <v>       0.28125000       0.40625000       0.09375000 </v>
   <v>       0.34375000       0.40625000       0.09375000 </v>
   <v>       0.40625000       0.40625000       0.09375000 </v>
   <v>       0.46875000       0.40625000       0.09375000 </v>
   <v>       0.03125000       0.46875000       0.09375000 </v>
   <v>       0.09375000       0.46875000       0.09375000 </v>
   <v>       0.15625000       0.46875000       0.09375000 </v>
   <v>       0.21875000       0.46875000       0.09375000 </v>
   <v>       0.28125000       0.46875000       0.09375000 </v>
   <v>       0.34375000       0.46875000       0.09375000 </v>
   <v>       0.40625000       0.46875000       0.09375000 </v>
   <v>       0.46875000       0.46875000       0.09375000 </v>
   <v>       0.03125000       0.15625000       0.15625000 </v>
   <v>       0.09375000       0.15625000       0.15625000 </v>
   <v>       0.15625000       0.15625000       0.15625000 </v>
   <v>       0.21875000       0.15625000       0.15625000 </v>
   <v>       0.28125000       0.15625000       0.15625000 </v>
   <v>       0.34375000       0.15625000       0.15625000 </v>
   <v>       0.40625000       0.15625000       0.15625000 </v>
   <v>       0.46875000       0.15625000       0.15625000 </v>
   <v>       0.03125000       0.21875000       0.15625000 </v>
   <v>       0.09375000       0.21875000       0.15625000 </v>
   <v>       0.15625000       0.21875000       0.15625000 </v>
   <v>       0.21875000       0.21875000       0.15625000 </v>
   <v>       0.28125000       0.21875000       0.15625000 </v>
   <v>       0.34375000       0.21875000       0.15625000 </v>
   <v>       0.40625000       0.21875000       0.15625000 </v>
   <v>       0.46875000       0.21875000       0.15625000 </v>
   <v>       0.03125000       0.28125000       0.15625000 </v>
   <v>       0.09375000       0.28125000       0.15625000 </v>
   <v>       0.15625000       0.28125000       0.15625000 </v>
   <v>       0.21875000       0.28125000       0.15625000 </v>
   <v>       0.28125000       0.28125000       0.15625000 </v>
   <v>       0.34375000       0.28125000       0.15625000 </v>
   <v>       0.40625000       0.28125000       0.15625000 </v>
   <v>       0.46875000       0.28125000       0.15625000 </v>
   <v>       0.03125000       0.34375000       0.15625000 </v>
   <v>       0.09375000       0.34375000       0.15625000 </v>
   <v>       0.15625000       0.34375000       0.15625000 </v>
   <v>       0.21875000       0.34375000       0.15625000 </v>
   <v>       0.28125000       0.34375000       0.15625000 </v>
   <v>       0.34375000       0.34375000       0.15625000 </v>
   <v>       0.40625000       0.34375000       0.15625000 </v>
   <v>       0.46875000       0.34375000       0.15625000 </v>
   <v>       0.03125000       0.40625000       0.15625000 </v>
   <v>       0.09375000       0.40625000       0.15625000 </v>
   <v>       0.15625000       0.40625000       0.15625000 </v>
   <v>       0.21875000       0.40625000       0.15625000 </v>
   <v>       0.28125000       0.40625000       0.15625000 </v>
   <v>       0.34375000       0.40625000       0.15625000 </v>
   <v>       0.40625000       0.40625000       0.15625000 </v>
   <v>       0.46875000       0.40625000       0.15625000 </v>
   <v>       0.03125000       0.46875000       0.15625000 </v>
   <v>       0.09375000       0.46875000       0.15625000 </v>
   <v>       0.15625000       0.46875000       0.15625000 </v>
   <v>       0.21875000       0.46875000       0.15625000 </v>
   <v>       0.28125000       0.46875000       0.15625000 </v>
   <v>       0.34375000       0.46875000       0.15625000 </v>
   <v>       0.40625000       0.46875000       0.15625000 </v>
   <v>       0.46875000       0.46875000       0.15625000 </v>
   <v>       0.03125000       0.21875000       0.21875000 </v>
   <v>       0.09375000       0.21875000       0.21875000 </v>
   <v>       0.15625000       0.21875000       0.21875000 </v>
   <v>       0.21875000       0.21875000       0.21875000 </v>
   <v>       0.28125000       0.21875000       0.21875000 </v>
   <v>       0.34375000       0.21875000       0.21875000 </v>
   <v>       0.40625000       0.21875000       0.21875000 </v>
   <v>       0.46875000       0.21875000       0.21875000 </v>
   <v>       0.03125000       0.28125000       0.21875000 </v>
   <v>       0.09375000       0.28125000       0.21875000 </v>
   <v>       0.15625000       0.28125000       0.21875000 </v>
   <v>       0.21875000       0.28125000       0.21875000 </v>
   <v>       0.28125000       0.28125000       0.21875000 </v>
   <v>       0.34375000       0.28125000       0.21875000 </v>
   <v>       0.40625000       0.28125000       0.21875000 </v>
   <v>       0.46875000       0.28125000       0.21875000 </v>
   <v>       0.03125000       0.34375000       0.21875000 </v>
   <v>       0.09375000       0.34375000       0.21875000 </v>
   <v>       0.15625000       0.34375000       0.21875000 </v>
   <v>       0.21875000       0.34375000       0.21875000 </v>
   <v>       0.28125000       0.34375000       0.21875000 </v>
   <v>       0.34375000       0.34375000       0.21875000 </v>
   <v>       0.40625000       0.34375000       0.21875000 </v>
   <v>       0.46875000       0.34375000       0.21875000 </v>
   <v>       0.03125000       0.40625000       0.21875000 </v>
   <v>       0.09375000       0.40625000       0.21875000 </v>
   <v>       0.15625000       0.40625000       0.21875000 </v>
   <v>       0.21875000       0.40625000       0.21875000 </v>
   <v>       0.28125000       0.40625000       0.21875000 </v>
   <v>       0.34375000       0.40625000       0.21875000 </v>
   <v>       0.40625000       0.40625000       0.21875000 </v>
   <v>       0.46875000       0.40625000       0.21875000 </v>
   <v>       0.03125000       0.46875000       0.21875000 </v>
   <v>       0.09375000       0.46875000       0.21875000 </v>
   <v>       0.15625000       0.46875000       0.21875000 </v>
   <v>       0.21875000       0.46875000       0.21875000 </v>
   <v>       0.28125000       0.46875000       0.21875000 </v>
   <v>       0.34375000       0.46875000       0.21875000 </v>
   <v>       0.40625000       0.46875000       0.21875000 </v>
   <v>       0.46875000       0.46875000       0.21875000 </v>
   <v>       0.03125000       0.28125000       0.28125000 </v>
   <v>       0.09375000       0.28125000       0.28125000 </v>
   <v>       0.15625000       0.28125000       0.28125000 </v>
   <v>       0.21875000       0.28125000       0.28125000 </v>
   <v>       0.28125000       0.28125000       0.28125000 </v>
   <v>       0.34375000       0.28125000       0.28125000 </v>
   <v>       0.40625000       0.28125000       0.28125000 </v>
   <v>       0.46875000       0.28125000       0.28125000 </v>
   <v>       0.03125000       0.34375000       0.28125000 </v>
   <v>       0.09375000       0.34375000       0.28125000 </v>
   <v>       0.15625000       0.34375000       0.28125000 </v>
   <v>       0.21875000       0.34375000       0.28125000 </v>
   <v>       0.28125000       0.34375000       0.28125000 </v>
   <v>       0.34375000       0.34375000       0.28125000 </v>
   <v>       0.40625000       0.34375000       0.28125000 </v>
   <v>       0.46875000       0.34375000       0.28125000 </v>
   <v>       0.03125000       0.40625000       0.28125000 </v>
   <v>       0.09375000       0.40625000       0.28125000 </v>
   <v>       0.15625000       0.40625000       0.28125000 </v>
   <v>       0.21875000       0.40625000       0.28125000 </v>
   <v>       0.28125000       0.40625000       0.28125000 </v>
   <v>       0.34375000       0.40625000       0.28125000 </v>
   <v>       0.40625000       0.40625000       0.28125000 </v>
   <v>       0.46875000       0.40625000       0.28125000 </v>
   <v>       0.03125000       0.46875000       0.28125000 </v>
   <v>       0.09375000       0.46875000       0.28125000 </v>
   <v>       0.15625000       0.46875000       0.28125000 </v>
   <v>       0.21875000       0.46875000       0.28125000 </v>
   <v>       0.28125000       0.46875000       0.28125000 </v>
   <v>       0.34375000       0.46875000       0.28125000 </v>
   <v>       0.40625000       0.46875000       0.28125000 </v>
   <v>       0.46875000       0.46875000       0.28125000 </v>
   <v>       0.03125000       0.34375000       0.34375000 </v>
   <v>       0.09375000       0.34375000       0.34375000 </v>
   <v>       0.15625000       0.34375000       0.34375000 </v>
   <v>       0.21875000       0.34375000       0.34375000 </v>
   <v>       0.28125000       0.34375000       0.34375000 </v>
   <v>       0.34375000       0.34375000       0.34375000 </v>
   <v>       0.40625000       0.34375000       0.34375000 </v>
   <v>       0.46875000       0.34375000       0.34375000 </v>
   <v>       0.03125000       0.40625000       0.34375000 </v>
   <v>       0.09375000       0.40625000       0.34375000 </v>
   <v>       0.15625000       0.40625000       0.34375000 </v>
   <v>       0.21875000       0.40625000       0.34375000 </v>
   <v>       0.28125000       0.40625000       0.34375000 </v>
   <v>       0.34375000       0.40625000       0.34375000 </v>
   <v>       0.40625000       0.40625000       0.34375000 </v>
   <v>       0.46875000       0.40625000       0.34375000 </v>
   <v>       0.03125000       0.46875000       0.34375000 </v>
   <v>       0.09375000       0.46875000       0.34375000 </v>
   <v>       0.15625000       0.46875000       0.34375000 </v>
   <v>       0.21875000       0.46875000       0.34375000 </v>
   <v>       0.28125000       0.46875000       0.34375000 </v>
   <v>       0.34375000       0.46875000       0.34375000 </v>
   <v>       0.40625000       0.46875000       0.34375000 </v>
   <v>       0.46875000       0.46875000       0.34375000 </v>
   <v>       0.03125000       0.40625000       0.40625000 </v>
   <v>       0.09375000       0.40625000       0.40625000 </v>
   <v>       0.15625000       0.40625000       0.40625000 </v>
   <v>       0.21875000       0.40625000       0.40625000 </v>
   <v>       0.28125000       0.40625000       0.40625000 </v>
   <v>       0.34375000       0.40625000       0.40625000 </v>
   <v>       0.40625000       0.40625000       0.40625000 </v>
   <v>       0.46875000       0.40625000       0.40625000 </v>
   <v>       0.03125000       0.46875000       0.40625000 </v>
   <v>       0.09375000       0.46875000       0.40625000 </v>
   <v>       0.15625000       0.46875000       0.40625000 </v>
   <v>       0.21875000       0.46875000       0.40625000 </v>
   <v>       0.28125000       0.46875000       0.40625000 </v>
   <v>       0.34375000       0.46875000       0.40625000 </v>
   <v>       0.40625000       0.46875000       0.40625000 </v>
   <v>       0.46875000       0.46875000       0.40625000 </v>
   <v>       0.03125000       0.46875000       0.46875000 </v>
   <v>       0.09375000       0.46875000       0.46875000 </v>
   <v>       0.15625000       0.46875000       0.46875000 </v>
   <v>       0.21875000       0.46875000       0.46875000 </v>
   <v>       0.28125000       0.46875000       0.46875000 </v>
   <v>       0.34375000       0.46875000       0.46875000 </v>
   <v>       0.40625000       0.46875000       0.46875000 </v>
   <v>       0.46875000       0.46875000       0.46875000 </v>
  </varray>
  <varray name="weights" >
   <v>       0.00195312 </v>
   <v>       0.00195312 </v>
   <v>       0.00195312 </v>
   <v>       0.00195312 </v>
   <v>       0.00195312 </v>
   <v>       0.00195312 </v>
   <v>       0.00195312 </v>
   <v>       0.00195312 </v>
   <v>       0.00390625 </v>
   <v>       0.00390625 </v>
   <v>       0.00390625 </v>
   <v>       0.00390625 </v>
   <v>       0.00390625 </v>
   <v>       0.00390625 </v>
   <v>       0.00390625 </v>
   <v>       0.00390625 </v>
   <v>       0.00390625 </v>
   <v>       0.00390625 </v>
   <v>       0.00390625 </v>
   <v>       0.00390625 </v>
   <v>       0.00390625 </v>
   <v>       0.00390625 </v>
   <v>       0.00390625 </v>
   <v>       0.00390625 </v>
   <v>       0.00390625 </v>
   <v>       0.00390625 </v>
   <v>       0.00390625 </v>
   <v>       0.00390625 </v>
   <v>       0.00390625 </v>
   <v>       0.00390625 </v>
   <v>       0.00390625 </v>
   <v>       0.00390625 </v>
   <v>       0.00390625 </v>
   <v>       0.00390625 </v>
   <v>       0.00390625 </v>
   <v>       0.00390625 </v>
   <v>       0.00390625 </v>
   <v>       0.00390625 </v>
   <v>       0.00390625 </v>
   <v>       0.00390625 </v>
   <v>       0.00390625 </v>
   <v>       0.00390625 </v>
   <v>       0.00390625 </v>
   <v>       0.00390625 </v>
   <v>       0.00390625 </v>
   <v>       0.00390625 </v>
   <v>       0.00390625 </v>
   <v>       0.00390625 </v>
   <v>       0.00390625 </v>
   <v>       0.00390625 </v>
   <v>       0.00390625 </v>
   <v>       0.00390625 </v>
   <v>       0.00390625 </v>
   <v>       0.00390625 </v>
   <v>       0.00390625 </v>
   <v>       0.00390625 </v>
   <v>       0.00390625 </v>
   <v>       0.00390625 </v>
   <v>       0.00390625 </v>
   <v>       0.00390625 </v>
   <v>       0.00390625 </v>
   <v>       0.00390625 </v>
   <v>       0.00390625 </v>
   <v>       0.00390625 </v>
   <v>       0.00195312 </v>
   <v>       0.00195312 </v>
   <v>       0.00195312 </v>
   <v>       0.00195312 </v>
   <v>       0.00195312 </v>
   <v>       0.00195312 </v>
   <v>       0.00195312 </v>
   <v>       0.00195312 </v>
   <v>       0.00390625 </v>
   <v>       0.00390625 </v>
   <v>       0.00390625 </v>
   <v>       0.00390625 </v>
   <v>       0.00390625 </v>
   <v>       0.00390625 </v>
   <v>       0.00390625 </v>
   <v>       0.00390625 </v>
   <v>       0.00390625 </v>
   <v>       0.00390625 </v>
   <v>       0.00390625 </v>
   <v>       0.00390625 </v>
   <v>       0.00390625 </v>
   <v>       0.00390625 </v>
   <v>       0.00390625 </v>
   <v>       0.00390625 </v>
   <v>       0.00390625 </v>
   <v>       0.00390625 </v>
   <v>       0.00390625 </v>
   <v>       0.00390625 </v>
   <v>       0.00390625 </v>
   <v>       0.00390625 </v>
   <v>       0.00390625 </v>
   <v>       0.00390625 </v>
   <v>       0.00390625 </v>
   <v>       0.00390625 </v>
   <v>       0.00390625 </v>
   <v>       0.00390625 </v>
   <v>       0.00390625 </v>
   <v>       0.00390625 </v>
   <v>       0.00390625 </v>
   <v>       0.00390625 </v>
   <v>       0.00390625 </v>
   <v>       0.00390625 </v>
   <v>       0.00390625 </v>
   <v>       0.00390625 </v>
   <v>       0.00390625 </v>
   <v>       0.00390625 </v>
   <v>       0.00390625 </v>
   <v>       0.00390625 </v>
   <v>       0.00390625 </v>
   <v>       0.00390625 </v>
   <v>       0.00390625 </v>
   <v>       0.00390625 </v>
   <v>       0.00390625 </v>
   <v>       0.00390625 </v>
   <v>       0.00390625 </v>
   <v>       0.00390625 </v>
   <v>       0.00195312 </v>
   <v>       0.00195312 </v>
   <v>       0.00195312 </v>
   <v>       0.00195312 </v>
   <v>       0.00195312 </v>
   <v>       0.00195312 </v>
   <v>       0.00195312 </v>
   <v>       0.00195312 </v>
   <v>       0.00390625 </v>
   <v>       0.00390625 </v>
   <v>       0.00390625 </v>
   <v>       0.00390625 </v>
   <v>       0.00390625 </v>
   <v>       0.00390625 </v>
   <v>       0.00390625 </v>
   <v>       0.00390625 </v>
   <v>       0.00390625 </v>
   <v>       0.00390625 </v>
   <v>       0.00390625 </v>
   <v>       0.00390625 </v>
   <v>       0.00390625 </v>
   <v>       0.00390625 </v>
   <v>       0.00390625 </v>
   <v>       0.00390625 </v>
   <v>       0.00390625 </v>
   <v>       0.00390625 </v>
   <v>       0.00390625 </v>
   <v>       0.00390625 </v>
   <v>       0.00390625 </v>
   <v>       0.00390625 </v>
   <v>       0.00390625 </v>
   <v>       0.00390625 </v>
   <v>       0.00390625 </v>
   <v>       0.00390625 </v>
   <v>       0.00390625 </v>
   <v>       0.00390625 </v>
   <v>       0.00390625 </v>
   <v>       0.00390625 </v>
   <v>       0.00390625 </v>
   <v>       0.00390625 </v>
   <v>       0.00390625 </v>
   <v>       0.00390625 </v>
   <v>       0.00390625 </v>
   <v>       0.00390625 </v>
   <v>       0.00390625 </v>
   <v>       0.00390625 </v>
   <v>       0.00390625 </v>
   <v>       0.00390625 </v>
   <v>       0.00195312 </v>
   <v>       0.00195312 </v>
   <v>       0.00195312 </v>
   <v>       0.00195312 </v>
   <v>       0.00195312 </v>
   <v>       0.00195312 </v>
   <v>       0.00195312 </v>
   <v>       0.00195312 </v>
   <v>       0.00390625 </v>
   <v>       0.00390625 </v>
   <v>       0.00390625 </v>
   <v>       0.00390625 </v>
   <v>       0.00390625 </v>
   <v>       0.00390625 </v>
   <v>       0.00390625 </v>
   <v>       0.00390625 </v>
   <v>       0.00390625 </v>
   <v>       0.00390625 </v>
   <v>       0.00390625 </v>
   <v>       0.00390625 </v>
   <v>       0.00390625 </v>
   <v>       0.00390625 </v>
   <v>       0.00390625 </v>
   <v>       0.00390625 </v>
   <v>       0.00390625 </v>
   <v>       0.00390625 </v>
   <v>       0.00390625 </v>
   <v>       0.00390625 </v>
   <v>       0.00390625 </v>
   <v>       0.00390625 </v>
   <v>       0.00390625 </v>
   <v>       0.00390625 </v>
   <v>       0.00390625 </v>
   <v>       0.00390625 </v>
   <v>       0.00390625 </v>
   <v>       0.00390625 </v>
   <v>       0.00390625 </v>
   <v>       0.00390625 </v>
   <v>       0.00390625 </v>
   <v>       0.00390625 </v>
   <v>       0.00195312 </v>
   <v>       0.00195312 </v>
   <v>       0.00195312 </v>
   <v>       0.00195312 </v>
   <v>       0.00195312 </v>
   <v>       0.00195312 </v>
   <v>       0.00195312 </v>
   <v>       0.00195312 </v>
   <v>       0.00390625 </v>
   <v>       0.00390625 </v>
   <v>       0.00390625 </v>
   <v>       0.00390625 </v>
   <v>       0.00390625 </v>
   <v>       0.00390625 </v>
   <v>       0.00390625 </v>
   <v>       0.00390625 </v>
   <v>       0.00390625 </v>
   <v>       0.00390625 </v>
   <v>       0.00390625 </v>
   <v>       0.00390625 </v>
   <v>       0.00390625 </v>
   <v>       0.00390625 </v>
   <v>       0.00390625 </v>
   <v>       0.00390625 </v>
   <v>       0.00390625 </v>
   <v>       0.00390625 </v>
   <v>       0.00390625 </v>
   <v>       0.00390625 </v>
   <v>       0.00390625 </v>
   <v>       0.00390625 </v>
   <v>       0.00390625 </v>
   <v>       0.00390625 </v>
   <v>       0.00195312 </v>
   <v>       0.00195312 </v>
   <v>       0.00195312 </v>
   <v>       0.00195312 </v>
   <v>       0.00195312 </v>
   <v>       0.00195312 </v>
   <v>       0.00195312 </v>
   <v>       0.00195312 </v>
   <v>       0.00390625 </v>
   <v>       0.00390625 </v>
   <v>       0.00390625 </v>
   <v>       0.00390625 </v>
   <v>       0.00390625 </v>
   <v>       0.00390625 </v>
   <v>       0.00390625 </v>
   <v>       0.00390625 </v>
   <v>       0.00390625 </v>
   <v>       0.00390625 </v>
   <v>       0.00390625 </v>
   <v>       0.00390625 </v>
   <v>       0.00390625 </v>
   <v>       0.00390625 </v>
   <v>       0.00390625 </v>
   <v>       0.00390625 </v>
   <v>       0.00195312 </v>
   <v>       0.00195312 </v>
   <v>       0.00195312 </v>
   <v>       0.00195312 </v>
   <v>       0.00195312 </v>
   <v>       0.00195312 </v>
   <v>       0.00195312 </v>
   <v>       0.00195312 </v>
   <v>       0.00390625 </v>
   <v>       0.00390625 </v>
   <v>       0.00390625 </v>
   <v>       0.00390625 </v>
   <v>       0.00390625 </v>
   <v>       0.00390625 </v>
   <v>       0.00390625 </v>
   <v>       0.00390625 </v>
   <v>       0.00195312 </v>
   <v>       0.00195312 </v>
   <v>       0.00195312 </v>
   <v>       0.00195312 </v>
   <v>       0.00195312 </v>
   <v>       0.00195312 </v>
   <v>       0.00195312 </v>
   <v>       0.00195312 </v>
  </varray>
 </kpoints>
 <parameters>
  <separator name="general" >
   <i type="string" name="SYSTEM">unknown system</i>
   <i type="logical" name="LCOMPAT"> F  </i>
  </separator>
  <separator name="electronic" >
   <i type="string" name="PREC">accura</i>
   <i name="ENMAX">    400.00000000</i>
   <i name="ENAUG">    322.06900000</i>
   <i name="EDIFF">      0.00010000</i>
   <i type="int" name="IALGO">    38</i>
   <i type="int" name="IWAVPR">    10</i>
   <i type="int" name="NBANDS">     8</i>
   <i name="NELECT">      8.00000000</i>
   <i type="int" name="TURBO">     0</i>
   <i type="int" name="IRESTART">     0</i>
   <i type="int" name="NREBOOT">     0</i>
   <i type="int" name="NMIN">     0</i>
   <i name="EREF">      0.00000000</i>
   <separator name="electronic smearing" >
    <i type="int" name="ISMEAR">     2</i>
    <i name="SIGMA">      0.10000000</i>
    <i name="KSPACING">      0.50000000</i>
    <i type="logical" name="KGAMMA"> T  </i>
   </separator>
   <separator name="electronic projectors" >
    <i type="logical" name="LREAL"> F  </i>
    <v name="ROPT">      0.00000000</v>
    <i type="int" name="LMAXPAW">  -100</i>
    <i type="int" name="LMAXMIX">     2</i>
    <i type="logical" name="NLSPLINE"> F  </i>
   </separator>
   <separator name="electronic startup" >
    <i type="int" name="ISTART">     0</i>
    <i type="int" name="ICHARG">     2</i>
    <i type="int" name="INIWAV">     1</i>
   </separator>
   <separator name="electronic spin" >
    <i type="int" name="ISPIN">     1</i>
    <i type="logical" name="LNONCOLLINEAR"> F  </i>
    <v name="MAGMOM">      1.00000000      1.00000000</v>
    <i name="NUPDOWN">     -1.00000000</i>
    <i type="logical" name="LSORBIT"> F  </i>
    <v name="SAXIS">      0.00000000      0.00000000      1.00000000</v>
    <i type="logical" name="LSPIRAL"> F  </i>
    <v name="QSPIRAL">      0.00000000      0.00000000      0.00000000</v>
    <i type="logical" name="LZEROZ"> F  </i>
   </separator>
   <separator name="electronic exchange-correlation" >
    <i type="logical" name="LASPH"> F  </i>
    <i type="logical" name="LMETAGGA"> F  </i>
   </separator>
   <separator name="electronic convergence" >
    <i type="int" name="NELM">    60</i>
    <i type="int" name="NELMDL">    -5</i>
    <i type="int" name="NELMIN">     2</i>
    <i name="ENINI">    400.00000000</i>
    <separator name="electronic convergence detail" >
     <i type="logical" name="LDIAG"> T  </i>
     <i type="logical" name="LSUBROT"> F  </i>
     <i name="WEIMIN">      0.00000000</i>
     <i name="EBREAK">      0.00000313</i>
     <i name="DEPER">      0.30000000</i>
     <i type="int" name="NRMM">     4</i>
     <i name="TIME">      0.40000000</i>
    </separator>
   </separator>
   <separator name="electronic mixer" >
    <i name="AMIX">      0.40000000</i>
    <i name="BMIX">      1.00000000</i>
    <i name="AMIN">      0.10000000</i>
    <i name="AMIX_MAG">      1.60000000</i>
    <i name="BMIX_MAG">      1.00000000</i>
    <separator name="electronic mixer details" >
     <i type="int" name="IMIX">     4</i>
     <i type="logical" name="MIXFIRST"> F  </i>
     <i type="int" name="MAXMIX">   -45</i>
     <i name="WC">    100.00000000</i>
     <i type="int" name="INIMIX">     1</i>
     <i type="int" name="MIXPRE">     1</i>
     <i type="int" name="MREMOVE">     5</i>
    </separator>
   </separator>
   <separator name="electronic dipolcorrection" >
    <i type="logical" name="LDIPOL"> F  </i>
    <i type="logical" name="LMONO"> F  </i>
    <i type="int" name="IDIPOL">     0</i>
    <i name="EPSILON">      1.00000000</i>
    <v name="DIPOL">   -100.00000000   -100.00000000   -100.00000000</v>
    <i name="EFIELD">      0.00000000</i>
   </separator>
  </separator>
  <separator name="grids" >
   <i type="int" name="NGX">    20</i>
   <i type="int" name="NGY">    20</i>
   <i type="int" name="NGZ">    20</i>
   <i type="int" name="NGXF">    40</i>
   <i type="int" name="NGYF">    40</i>
   <i type="int" name="NGZF">    40</i>
   <i type="logical" name="ADDGRID"> F  </i>
  </separator>
  <separator name="ionic" >
   <i type="int" name="NSW">     0</i>
   <i type="int" name="IBRION">    -1</i>
   <i type="int" name="ISIF">     2</i>
   <i name="PSTRESS">      0.00000000</i>
   <i name="EDIFFG">      0.00100000</i>
   <i type="int" name="NFREE">     0</i>
   <i name="POTIM">      0.50000000</i>
   <i name="SMASS">     -3.00000000</i>
   <i name="SCALEE">      1.00000000</i>
  </separator>
  <separator name="ionic md" >
   <i name="TEBEG">      0.00010000</i>
   <i name="TEEND">      0.00010000</i>
   <i type="int" name="NBLOCK">     1</i>
   <i type="int" name="KBLOCK">     1</i>
   <i type="int" name="NPACO">   256</i>
   <i name="APACO">     16.00000000</i>
  </separator>
  <separator name="symmetry" >
   <i type="int" name="ISYM">     2</i>
   <i name="SYMPREC">      0.00001000</i>
  </separator>
  <separator name="dos" >
   <i type="logical" name="LORBIT"> F  </i>
   <v name="RWIGS">     -1.00000000</v>
   <i type="int" name="NEDOS">   301</i>
   <i name="EMIN">     10.00000000</i>
   <i name="EMAX">    -10.00000000</i>
   <i name="EFERMI">      0.00000000</i>
  </separator>
  <separator name="writing" >
   <i type="int" name="NWRITE">     1</i>
   <i type="logical" name="LWAVE"> T  </i>
   <i type="logical" name="LCHARG"> T  </i>
   <i type="logical" name="LPARD"> F  </i>
   <i type="logical" name="LVTOT"> F  </i>
   <i type="logical" name="LVHAR"> F  </i>
   <i type="logical" name="LELF"> F  </i>
   <i type="logical" name="LOPTICS"> F  </i>
   <v name="STM">      0.00000000      0.00000000      0.00000000      0.00000000      0.00000000      0.00000000      0.00000000</v>
  </separator>
  <separator name="performance" >
   <i type="int" name="NPAR">     8</i>
   <i type="int" name="NSIM">     4</i>
   <i type="int" name="NBLK">    -1</i>
   <i type="logical" name="LPLANE"> T  </i>
   <i type="logical" name="LSCALAPACK"> T  </i>
   <i type="logical" name="LSCAAWARE"> F  </i>
   <i type="logical" name="LSCALU"> F  </i>
   <i type="logical" name="LASYNC"> F  </i>
   <i type="logical" name="LORBITALREAL"> F  </i>
  </separator>
  <separator name="miscellaneous" >
   <i type="int" name="IDIOT">     3</i>
   <i type="logical" name="LMUSIC"> F  </i>
   <v name="POMASS">     28.08500000</v>
   <v name="DARWINR">      0.00000000</v>
   <v name="DARWINV">      1.00000000</v>
   <i type="logical" name="LCORR"> T  </i>
  </separator>
  <i type="logical" name="GGA_COMPAT"> T  </i>
  <i type="logical" name="LBERRY"> F  </i>
  <i type="int" name="ICORELEVEL">     0</i>
  <i type="logical" name="LDAU"> F  </i>
  <i type="int" name="I_CONSTRAINED_M">     0</i>
  <separator name="electronic exchange-correlation" >
   <i type="string" name="GGA">--</i>
   <i type="int" name="VOSKOWN">     0</i>
   <i type="logical" name="LHFCALC"> F  </i>
   <i type="string" name="PRECFOCK"></i>
   <i type="logical" name="LSYMGRAD"> F  </i>
   <i type="logical" name="LHFONE"> F  </i>
   <i type="logical" name="LRHFCALC"> F  </i>
   <i type="logical" name="LTHOMAS"> F  </i>
   <i type="logical" name="LMODELHF"> F  </i>
   <i name="ENCUT4O">     -1.00000000</i>
   <i type="int" name="EXXOEP">     0</i>
   <i type="int" name="FOURORBIT">     0</i>
   <i name="AEXX">      0.00000000</i>
   <i name="HFALPHA">      0.00000000</i>
   <i name="MCALPHA">      0.00000000</i>
   <i name="ALDAX">      1.00000000</i>
   <i name="AGGAX">      1.00000000</i>
   <i name="ALDAC">      1.00000000</i>
   <i name="AGGAC">      1.00000000</i>
   <i type="int" name="NKREDX">     1</i>
   <i type="int" name="NKREDY">     1</i>
   <i type="int" name="NKREDZ">     1</i>
   <i type="logical" name="SHIFTRED"> F  </i>
   <i type="logical" name="ODDONLY"> F  </i>
   <i type="logical" name="EVENONLY"> F  </i>
   <i type="int" name="LMAXFOCK">     0</i>
   <i type="int" name="NMAXFOCKAE">     0</i>
   <i type="logical" name="LFOCKAEDFT"> F  </i>
   <i name="HFSCREEN">      0.00000000</i>
   <i name="HFSCREENC">      0.00000000</i>
   <i type="int" name="NBANDSGWLOW">     0</i>
  </separator>
  <separator name="vdW DFT" >
   <i type="logical" name="LUSE_VDW"> F  </i>
   <i name="Zab_VDW">     -0.84910000</i>
   <i name="PARAM1">      0.12340000</i>
   <i name="PARAM2">      1.00000000</i>
   <i name="PARAM3">      0.00000000</i>
  </separator>
  <separator name="model GW" >
   <i type="int" name="MODEL_GW">     0</i>
   <i name="MODEL_EPS0">      8.87960529</i>
   <i name="MODEL_ALPHA">      1.00000000</i>
  </separator>
  <separator name="linear response parameters" >
   <i type="logical" name="LEPSILON"> F  </i>
   <i type="logical" name="LRPA"> F  </i>
   <i type="logical" name="LNABLA"> F  </i>
   <i type="logical" name="LVEL"> F  </i>
   <i type="int" name="KINTER">     0</i>
   <i name="CSHIFT">      0.10000000</i>
   <i name="OMEGAMAX">     -1.00000000</i>
   <i name="DEG_THRESHOLD">      0.00200000</i>
  </separator>
  <separator name="orbital magnetization" >
   <i type="logical" name="NUCIND"> F  </i>
   <v name="MAGPOS">      0.00000000      0.00000000      0.00000000</v>
   <i type="logical" name="LNICSALL"> T  </i>
   <i type="logical" name="ORBITALMAG"> F  </i>
   <i type="logical" name="LMAGBLOCH"> F  </i>
   <i type="logical" name="LCHIMAG"> F  </i>
   <i type="logical" name="LGAUGE"> T  </i>
   <i type="int" name="MAGATOM">     0</i>
   <v name="MAGDIPOL">      0.00000000      0.00000000      0.00000000</v>
   <v name="AVECCONST">      0.00000000      0.00000000      0.00000000</v>
  </separator>
  <separator name="response functions" >
   <i type="logical" name="LADDER"> F  </i>
   <i type="logical" name="LFXC"> F  </i>
   <i type="logical" name="LHARTREE"> T  </i>
   <i type="int" name="IBSE">     0</i>
   <v type="int" name="KPOINT">    -1     0     0     0</v>
   <i type="logical" name="LTCTE"> F  </i>
   <i type="logical" name="LTETE"> F  </i>
   <i type="logical" name="LTRIPLET"> F  </i>
   <i type="logical" name="LFXCEPS"> F  </i>
   <i type="logical" name="LFXHEG"> F  </i>
   <i type="int" name="NATURALO">     0</i>
   <i type="logical" name="L2ORDER"> F  </i>
   <i type="logical" name="LUSEW"> F  </i>
   <i name="ENCUTGW">     -2.00000000</i>
   <i name="ENCUTGWSOFT">     -2.00000000</i>
   <i name="ENCUTLF">     -1.00000000</i>
   <i type="int" name="LMAXMP2">    -1</i>
   <i name="SCISSOR">      0.00000000</i>
   <i type="int" name="NOMEGA">     0</i>
   <i type="int" name="NOMEGAR">     0</i>
   <i type="int" name="NBANDSGW">    -1</i>
   <i type="int" name="NBANDSO">    -1</i>
   <i type="int" name="NBANDSV">    -1</i>
   <i type="int" name="NELM">     1</i>
   <i type="int" name="NELMHF">     1</i>
   <i type="int" name="DIM">     3</i>
   <i type="int" name="ANTIRES">     0</i>
   <i name="OMEGAMAX">    -30.00000000</i>
   <i name="OMEGAMIN">    -30.00000000</i>
   <i name="OMEGATL">   -200.00000000</i>
   <i type="int" name="OMEGAGRID">     0</i>
   <i name="CSHIFT">     -0.10000000</i>
   <i type="logical" name="SELFENERGY"> F  </i>
   <i type="logical" name="LSPECTRAL"> F  </i>
   <i type="logical" name="LSPECTRALGW"> F  </i>
   <i type="logical" name="LSINGLES"> F  </i>
   <i type="logical" name="LFERMIGW"> F  </i>
   <i type="logical" name="ODDONLYGW"> F  </i>
   <i type="logical" name="EVENONLYGW"> F  </i>
   <i type="int" name="NKREDLFX">     1</i>
   <i type="int" name="NKREDLFY">     1</i>
   <i type="int" name="NKREDLFZ">     1</i>
   <i type="int" name="MAXMEM">  1800</i>
   <i type="int" name="TELESCOPE">     0</i>
   <i type="int" name="TAUPAR">     1</i>
   <i type="int" name="OMEGAPAR">    -1</i>
   <i name="LAMBDA">      1.00000000</i>
  </separator>
  <separator name="External order field" >
   <i name="OFIELD_KAPPA">      0.00000000</i>
   <v name="OFIELD_K">      0.00000000      0.00000000      0.00000000</v>
   <i name="OFIELD_Q6_NEAR">      0.00000000</i>
   <i name="OFIELD_Q6_FAR">      0.00000000</i>
   <i name="OFIELD_A">      0.00000000</i>
  </separator>
 </parameters>
 <atominfo>
  <atoms>       2 </atoms>
  <types>       1 </types>
  <array name="atoms" >
   <dimension dim="1">ion</dimension>
   <field type="string">element</field>
   <field type="int">atomtype</field>
   <set>
    <rc><c>Si</c><c>   1</c></rc>
    <rc><c>Si</c><c>   1</c></rc>
   </set>
  </array>
  <array name="atomtypes" >
   <dimension dim="1">type</dimension>
   <field type="int">atomspertype</field>
   <field type="string">element</field>
   <field>mass</field>
   <field>valence</field>
   <field type="string">pseudopotential</field>
   <set>
    <rc><c>   2</c><c>Si</c><c>     28.08500000</c><c>      4.00000000</c><c>  PAW_PBE Si 05Jan2001                  </c></rc>
   </set>
  </array>
 </atominfo>
 <structure name="initialpos" >
  <crystal>
   <varray name="basis" >
    <v>       3.05193200       0.00000000       0.00000000 </v>
    <v>       0.00000000       3.11421633       0.00000000 </v>
    <v>       0.00000000       0.00000000       3.11421633 </v>
   </varray>
   <i name="volume">     29.59868431 </i>
   <varray name="rec_basis" >
    <v>       0.32766130       0.00000000       0.00000000 </v>
    <v>       0.00000000       0.32110807       0.00000000 </v>
    <v>       0.00000000       0.00000000       0.32110807 </v>
   </varray>
  </crystal>
  <varray name="positions" >
   <v>       0.00000000       0.00000000       0.00000000 </v>
   <v>       0.50000000       0.50000000       0.50000000 </v>
  </varray>
 </structure>
 <calculation>
  <scstep>
   <time name="dav">    0.89    0.92</time>
   <time name="total">    0.95    0.98</time>
   <energy>
    <i name="alphaZ">      4.54927394 </i>
    <i name="ewald">   -271.05551951 </i>
    <i name="hartreedc">     -1.23599030 </i>
    <i name="XCdc">    -17.73482395 </i>
    <i name="pawpsdc">    176.24759923 </i>
    <i name="pawaedc">   -141.06103558 </i>
    <i name="eentropy">     -0.00044736 </i>
    <i name="bandstr">     46.24536423 </i>
    <i name="atom">    206.13149246 </i>
    <i name="e_fr_energy">      2.08591317 </i>
    <i name="e_wo_entrp">      2.08636053 </i>
    <i name="e_0_energy">      2.08602501 </i>
   </energy>
  </scstep>
  <scstep>
   <time name="dav">    1.35    1.36</time>
   <time name="total">    1.36    1.39</time>
   <energy>
    <i name="e_fr_energy">     -9.70955562 </i>
    <i name="e_wo_entrp">     -9.70938104 </i>
    <i name="e_0_energy">     -9.70951198 </i>
   </energy>
  </scstep>
  <scstep>
   <time name="dav">    1.14    1.16</time>
   <time name="total">    1.18    1.18</time>
   <energy>
    <i name="e_fr_energy">     -9.83362919 </i>
    <i name="e_wo_entrp">     -9.83341915 </i>
    <i name="e_0_energy">     -9.83357668 </i>
   </energy>
  </scstep>
  <scstep>
   <time name="dav">    1.31    1.33</time>
   <time name="total">    1.34    1.35</time>
   <energy>
    <i name="e_fr_energy">     -9.83390257 </i>
    <i name="e_wo_entrp">     -9.83369238 </i>
    <i name="e_0_energy">     -9.83385002 </i>
   </energy>
  </scstep>
  <scstep>
   <time name="dav">    1.15    1.17</time>
   <time name="total">    1.20    1.23</time>
   <energy>
    <i name="e_fr_energy">     -9.83390336 </i>
    <i name="e_wo_entrp">     -9.83369317 </i>
    <i name="e_0_energy">     -9.83385081 </i>
   </energy>
  </scstep>
  <scstep>
   <time name="dav">    1.08    1.08</time>
   <time name="total">    1.12    1.14</time>
   <energy>
    <i name="e_fr_energy">     -9.81268594 </i>
    <i name="e_wo_entrp">     -9.81244080 </i>
    <i name="e_0_energy">     -9.81262465 </i>
   </energy>
  </scstep>
  <scstep>
   <time name="dav">    1.05    1.05</time>
   <time name="total">    1.09    1.11</time>
   <energy>
    <i name="e_fr_energy">     -9.80080265 </i>
    <i name="e_wo_entrp">     -9.80051057 </i>
    <i name="e_0_energy">     -9.80072963 </i>
   </energy>
  </scstep>
  <scstep>
   <time name="dav">    1.23    1.23</time>
   <time name="total">    1.26    1.26</time>
   <energy>
    <i name="alphaZ">      4.54927394 </i>
    <i name="ewald">   -271.05551951 </i>
    <i name="hartreedc">     -0.90062055 </i>
    <i name="XCdc">    -17.63226339 </i>
    <i name="pawpsdc">    575.59651135 </i>
    <i name="pawaedc">   -540.43445465 </i>
    <i name="eentropy">     -0.00029434 </i>
    <i name="bandstr">     33.94512037 </i>
    <i name="atom">    206.13149246 </i>
    <i name="e_fr_energy">     -9.80075432 </i>
    <i name="e_wo_entrp">     -9.80045997 </i>
    <i name="e_0_energy">     -9.80068073 </i>
   </energy>
  </scstep>
  <structure>
   <crystal>
    <varray name="basis" >
     <v>       3.05193200       0.00000000       0.00000000 </v>
     <v>       0.00000000       3.11421633       0.00000000 </v>
     <v>       0.00000000       0.00000000       3.11421633 </v>
    </varray>
    <i name="volume">     29.59868431 </i>
    <varray name="rec_basis" >
     <v>       0.32766130       0.00000000       0.00000000 </v>
     <v>       0.00000000       0.32110807       0.00000000 </v>
     <v>       0.00000000       0.00000000       0.32110807 </v>
    </varray>
   </crystal>
   <varray name="positions" >
    <v>       0.00000000       0.00000000       0.00000000 </v>
    <v>       0.50000000       0.50000000       0.50000000 </v>
   </varray>
  </structure>
  <varray name="forces" >
   <v>       0.00000000       0.00000000       0.00000000 </v>
   <v>       0.00000000       0.00000000       0.00000000 </v>
  </varray>
  <varray name="stress" >
   <v>     -14.30493418       0.00000000       0.00000000 </v>
   <v>       0.00000000      -9.34298027       0.00000000 </v>
   <v>       0.00000000       0.00000000      -9.34298027 </v>
  </varray>
  <energy>
   <i name="e_fr_energy">     -9.80075432 </i>
   <i name="e_wo_entrp">     -9.80068073 </i>
   <i name="e_0_energy">     -0.00029434 </i>
  </energy>
  <time name="totalsc">   10.26   10.44</time>
  <eigenvalues>
   <array>
    <dimension dim="1">band</dimension>
    <dimension dim="2">kpoint</dimension>
    <dimension dim="3">spin</dimension>
    <field>eigene</field>
    <field>occ</field>
    <set>
     <set comment="spin 1">
      <set comment="kpoint 1">
       <r>   -4.3172    1.0000 </r>
       <r>    8.7532    1.0000 </r>
       <r>    8.8710    1.0000 </r>
       <r>    9.3638    1.0000 </r>
       <r>   11.1215    0.0000 </r>
       <r>   12.3492    0.0000 </r>
       <r>   12.6616    0.0000 </r>
       <r>   20.2397    0.0000 </r>
      </set>
      <set comment="kpoint 2">
       <r>   -4.1952    1.0000 </r>
       <r>    7.9578    1.0000 </r>
       <r>    8.8862    1.0000 </r>
       <r>    8.9818    1.0000 </r>
       <r>   11.3561    0.0000 </r>
       <r>   12.4716    0.0000 </r>
       <r>   14.1183    0.0000 </r>
       <r>   19.4140    0.0000 </r>
      </set>
      <set comment="kpoint 3">
       <r>   -3.9517    1.0000 </r>
       <r>    6.4359    1.0000 </r>
       <r>    9.1030    1.0000 </r>
       <r>    9.2033    1.0000 </r>
       <r>   11.6091    0.0000 </r>
       <r>   12.7163    0.0000 </r>
       <r>   16.0020    0.0000 </r>
       <r>   18.2715    0.0000 </r>
      </set>
      <set comment="kpoint 4">
       <r>   -3.5868    1.0000 </r>
       <r>    4.9590    1.0000 </r>
       <r>    9.4344    0.9999 </r>
       <r>    9.5353    0.9958 </r>
       <r>   11.9528    0.0000 </r>
       <r>   13.0831    0.0000 </r>
       <r>   17.0601    0.0000 </r>
       <r>   17.2320    0.0000 </r>
      </set>
      <set comment="kpoint 5">
       <r>   -3.1012    1.0000 </r>
       <r>    3.5691    1.0000 </r>
       <r>    9.8761   -0.0373 </r>
       <r>    9.9773    0.0041 </r>
       <r>   12.3987    0.0000 </r>
       <r>   13.5719    0.0000 </r>
       <r>   15.8672    0.0000 </r>
       <r>   16.0141    0.0000 </r>
      </set>
      <set comment="kpoint 6">
       <r>   -2.4959    1.0000 </r>
       <r>    2.2799    1.0000 </r>
       <r>   10.4268    0.0000 </r>
       <r>   10.5286    0.0000 </r>
       <r>   12.9464    0.0000 </r>
       <r>   14.1822    0.0000 </r>
       <r>   14.7329    0.0000 </r>
       <r>   14.8634    0.0000 </r>
      </set>
      <set comment="kpoint 7">
       <r>   -1.7719    1.0000 </r>
       <r>    1.0978    1.0000 </r>
       <r>   11.0849    0.0000 </r>
       <r>   11.1884    0.0000 </r>
       <r>   13.5921    0.0000 </r>
       <r>   13.6781    0.0000 </r>
       <r>   13.7973    0.0000 </r>
       <r>   14.9136    0.0000 </r>
      </set>
      <set comment="kpoint 8">
       <r>   -0.9304    1.0000 </r>
       <r>    0.0268    1.0000 </r>
       <r>   11.8484    0.0000 </r>
       <r>   11.9549    0.0000 </r>
       <r>   12.7143    0.0000 </r>
       <r>   12.8257    0.0000 </r>
       <r>   14.3299    0.0000 </r>
       <r>   15.1516    0.0000 </r>
      </set>
      <set comment="kpoint 9">
       <r>   -4.2001    1.0000 </r>
       <r>    7.4745    1.0000 </r>
       <r>    8.9299    1.0000 </r>
       <r>    9.4725    0.9994 </r>
       <r>   11.5894    0.0000 </r>
       <r>   12.7317    0.0000 </r>
       <r>   13.5502    0.0000 </r>
       <r>   19.2525    0.0000 </r>
      </set>
      <set comment="kpoint 10">
       <r>   -4.0783    1.0000 </r>
       <r>    7.5656    1.0000 </r>
       <r>    8.1078    1.0000 </r>
       <r>    9.0482    1.0000 </r>
       <r>   11.8463    0.0000 </r>
       <r>   13.5412    0.0000 </r>
       <r>   14.2888    0.0000 </r>
       <r>   18.5042    0.0000 </r>
      </set>
      <set comment="kpoint 11">
       <r>   -3.8348    1.0000 </r>
       <r>    6.5385    1.0000 </r>
       <r>    7.8373    1.0000 </r>
       <r>    9.2683    1.0000 </r>
       <r>   12.1039    0.0000 </r>
       <r>   13.8202    0.0000 </r>
       <r>   16.1244    0.0000 </r>
       <r>   17.2782    0.0000 </r>
      </set>
      <set comment="kpoint 12">
       <r>   -3.4702    1.0000 </r>
       <r>    5.0686    1.0000 </r>
       <r>    8.1706    1.0000 </r>
       <r>    9.6001    1.0071 </r>
       <r>   12.4524    0.0000 </r>
       <r>   14.1784    0.0000 </r>
       <r>   16.0041    0.0000 </r>
       <r>   17.2212    0.0000 </r>
      </set>
      <set comment="kpoint 13">
       <r>   -2.9849    1.0000 </r>
       <r>    3.6807    1.0000 </r>
       <r>    8.6216    1.0000 </r>
       <r>   10.0419    0.0006 </r>
       <r>   12.9048    0.0000 </r>
       <r>   14.6481    0.0000 </r>
       <r>   14.7662    0.0000 </r>
       <r>   16.0420    0.0000 </r>
      </set>
      <set comment="kpoint 14">
       <r>   -2.3800    1.0000 </r>
       <r>    2.3927    1.0000 </r>
       <r>    9.1848    1.0000 </r>
       <r>   10.5928    0.0000 </r>
       <r>   13.4607    0.0000 </r>
       <r>   13.5973    0.0000 </r>
       <r>   14.9082    0.0000 </r>
       <r>   15.2320    0.0000 </r>
      </set>
      <set comment="kpoint 15">
       <r>   -1.6564    1.0000 </r>
       <r>    1.2115    1.0000 </r>
       <r>    9.8581   -0.0503 </r>
       <r>   11.2516    0.0000 </r>
       <r>   12.5141    0.0000 </r>
       <r>   13.8509    0.0000 </r>
       <r>   14.1162    0.0000 </r>
       <r>   15.9297    0.0000 </r>
      </set>
      <set comment="kpoint 16">
       <r>   -0.8154    1.0000 </r>
       <r>    0.1413    1.0000 </r>
       <r>   10.6396    0.0000 </r>
       <r>   11.5262    0.0000 </r>
       <r>   12.0164    0.0000 </r>
       <r>   12.8843    0.0000 </r>
       <r>   14.8644    0.0000 </r>
       <r>   15.6953    0.0000 </r>
      </set>
      <set comment="kpoint 17">
       <r>   -3.9663    1.0000 </r>
       <r>    6.0098    1.0000 </r>
       <r>    9.1418    1.0000 </r>
       <r>    9.6847    1.0235 </r>
       <r>   11.8909    0.0000 </r>
       <r>   12.9723    0.0000 </r>
       <r>   15.2984    0.0000 </r>
       <r>   18.0656    0.0000 </r>
      </set>
      <set comment="kpoint 18">
       <r>   -3.8446    1.0000 </r>
       <r>    6.1216    1.0000 </r>
       <r>    8.3060    1.0000 </r>
       <r>    9.2604    1.0000 </r>
       <r>   12.1480    0.0000 </r>
       <r>   14.3496    0.0000 </r>
       <r>   15.4591    0.0000 </r>
       <r>   17.3324    0.0000 </r>
      </set>
      <set comment="kpoint 19">
       <r>   -3.6014    1.0000 </r>
       <r>    6.3143    1.0000 </r>
       <r>    6.8217    1.0000 </r>
       <r>    9.4802    0.9991 </r>
       <r>   12.4063    0.0000 </r>
       <r>   15.4805    0.0000 </r>
       <r>   16.0260    0.0000 </r>
       <r>   16.4297    0.0000 </r>
      </set>
      <set comment="kpoint 20">
       <r>   -3.2372    1.0000 </r>
       <r>    5.2822    1.0000 </r>
       <r>    6.7242    1.0000 </r>
       <r>    9.8116    0.0303 </r>
       <r>   12.7576    0.0000 </r>
       <r>   14.7014    0.0000 </r>
       <r>   15.8872    0.0000 </r>
       <r>   17.2307    0.0000 </r>
      </set>
      <set comment="kpoint 21">
       <r>   -2.7525    1.0000 </r>
       <r>    3.9029    1.0000 </r>
       <r>    7.1750    1.0000 </r>
       <r>   10.2529    0.0000 </r>
       <r>   13.2144    0.0000 </r>
       <r>   13.4277    0.0000 </r>
       <r>   16.1784    0.0000 </r>
       <r>   16.3461    0.0000 </r>
      </set>
      <set comment="kpoint 22">
       <r>   -2.1483    1.0000 </r>
       <r>    2.6179    1.0000 </r>
       <r>    7.7450    1.0000 </r>
       <r>   10.8030    0.0000 </r>
       <r>   12.2319    0.0000 </r>
       <r>   13.7765    0.0000 </r>
       <r>   15.0859    0.0000 </r>
       <r>   16.9029    0.0000 </r>
      </set>
      <set comment="kpoint 23">
       <r>   -1.4255    1.0000 </r>
       <r>    1.4386    1.0000 </r>
       <r>    8.4279    1.0000 </r>
       <r>   11.1275    0.0000 </r>
       <r>   11.4604    0.0000 </r>
       <r>   14.0454    0.0000 </r>
       <r>   14.4399    0.0000 </r>
       <r>   16.9381    0.0000 </r>
      </set>
      <set comment="kpoint 24">
       <r>   -0.5856    1.0000 </r>
       <r>    0.3698    1.0000 </r>
       <r>    9.2213    1.0000 </r>
       <r>   10.1223    0.0000 </r>
       <r>   12.2229    0.0000 </r>
       <r>   13.0868    0.0000 </r>
       <r>   15.1975    0.0000 </r>
       <r>   16.0374    0.0000 </r>
      </set>
      <set comment="kpoint 25">
       <r>   -3.6160    1.0000 </r>
       <r>    4.5912    1.0000 </r>
       <r>    9.4606    0.9996 </r>
       <r>   10.0022    0.0023 </r>
       <r>   12.2395    0.0000 </r>
       <r>   13.3225    0.0000 </r>
       <r>   16.8536    0.0000 </r>
       <r>   17.2467    0.0000 </r>
      </set>
      <set comment="kpoint 26">
       <r>   -3.4945    1.0000 </r>
       <r>    4.7063    1.0000 </r>
       <r>    8.6293    1.0000 </r>
       <r>    9.5793    0.9980 </r>
       <r>   12.5005    0.0000 </r>
       <r>   14.7160    0.0000 </r>
       <r>   16.1188    0.0000 </r>
       <r>   16.9607    0.0000 </r>
      </set>
      <set comment="kpoint 27">
       <r>   -3.2518    1.0000 </r>
       <r>    4.9340    1.0000 </r>
       <r>    7.1170    1.0000 </r>
       <r>    9.7987    0.1040 </r>
       <r>   12.7596    0.0000 </r>
       <r>   14.7598    0.0000 </r>
       <r>   16.4892    0.0000 </r>
       <r>   17.0349    0.0000 </r>
      </set>
      <set comment="kpoint 28">
       <r>   -2.8882    1.0000 </r>
       <r>    5.2280    1.0000 </r>
       <r>    5.7002    1.0000 </r>
       <r>   10.1296    0.0000 </r>
       <r>   13.1106    0.0000 </r>
       <r>   13.4003    0.0000 </r>
       <r>   16.9377    0.0000 </r>
       <r>   17.6668    0.0000 </r>
      </set>
      <set comment="kpoint 29">
       <r>   -2.4044    1.0000 </r>
       <r>    4.2293    1.0000 </r>
       <r>    5.7778    1.0000 </r>
       <r>   10.5699    0.0000 </r>
       <r>   12.1012    0.0000 </r>
       <r>   13.5666    0.0000 </r>
       <r>   16.2996    0.0000 </r>
       <r>   18.1857    0.0000 </r>
      </set>
      <set comment="kpoint 30">
       <r>   -1.8012    1.0000 </r>
       <r>    2.9539    1.0000 </r>
       <r>    6.3466    1.0000 </r>
       <r>   10.8859    0.0000 </r>
       <r>   11.1186    0.0000 </r>
       <r>   14.1274    0.0000 </r>
       <r>   15.3303    0.0000 </r>
       <r>   17.9815    0.0000 </r>
      </set>
      <set comment="kpoint 31">
       <r>   -1.0798    1.0000 </r>
       <r>    1.7784    1.0000 </r>
       <r>    7.0353    1.0000 </r>
       <r>    9.7660    0.3916 </r>
       <r>   11.7736    0.0000 </r>
       <r>   14.3299    0.0000 </r>
       <r>   14.7884    0.0000 </r>
       <r>   17.2270    0.0000 </r>
      </set>
      <set comment="kpoint 32">
       <r>   -0.2414    1.0000 </r>
       <r>    0.7121    1.0000 </r>
       <r>    7.8368    1.0000 </r>
       <r>    8.7481    1.0000 </r>
       <r>   12.5318    0.0000 </r>
       <r>   13.3877    0.0000 </r>
       <r>   15.5406    0.0000 </r>
       <r>   16.3672    0.0000 </r>
      </set>
      <set comment="kpoint 33">
       <r>   -3.1499    1.0000 </r>
       <r>    3.2562    1.0000 </r>
       <r>    9.8852   -0.0287 </r>
       <r>   10.4246    0.0000 </r>
       <r>   12.6770    0.0000 </r>
       <r>   13.7873    0.0000 </r>
       <r>   15.6804    0.0000 </r>
       <r>   16.1744    0.0000 </r>
      </set>
      <set comment="kpoint 34">
       <r>   -3.0287    1.0000 </r>
       <r>    3.3729    1.0000 </r>
       <r>    9.0617    1.0000 </r>
       <r>   10.0039    0.0022 </r>
       <r>   12.9458    0.0000 </r>
       <r>   14.9377    0.0000 </r>
       <r>   15.1641    0.0000 </r>
       <r>   15.7970    0.0000 </r>
      </set>
      <set comment="kpoint 35">
       <r>   -2.7865    1.0000 </r>
       <r>    3.6055    1.0000 </r>
       <r>    7.5529    1.0000 </r>
       <r>   10.2227    0.0000 </r>
       <r>   13.2061    0.0000 </r>
       <r>   13.5416    0.0000 </r>
       <r>   15.9542    0.0000 </r>
       <r>   16.9719    0.0000 </r>
      </set>
      <set comment="kpoint 36">
       <r>   -2.4238    1.0000 </r>
       <r>    3.9504    1.0000 </r>
       <r>    6.0926    1.0000 </r>
       <r>   10.5527    0.0000 </r>
       <r>   12.1564    0.0000 </r>
       <r>   13.5556    0.0000 </r>
       <r>   16.1380    0.0000 </r>
       <r>   18.3811    0.0000 </r>
      </set>
      <set comment="kpoint 37">
       <r>   -1.9411    1.0000 </r>
       <r>    4.3426    1.0000 </r>
       <r>    4.7868    1.0000 </r>
       <r>   10.8384    0.0000 </r>
       <r>   10.9915    0.0000 </r>
       <r>   14.0082    0.0000 </r>
       <r>   16.1332    0.0000 </r>
       <r>   17.8137    0.0000 </r>
      </set>
      <set comment="kpoint 38">
       <r>   -1.3394    1.0000 </r>
       <r>    3.3941    1.0000 </r>
       <r>    5.0366    1.0000 </r>
       <r>    9.6084    1.0130 </r>
       <r>   11.5377    0.0000 </r>
       <r>   14.5633    0.0000 </r>
       <r>   15.5677    0.0000 </r>
       <r>   17.6521    0.0000 </r>
      </set>
      <set comment="kpoint 39">
       <r>   -0.6197    1.0000 </r>
       <r>    2.2290    1.0000 </r>
       <r>    5.7234    1.0000 </r>
       <r>    8.4766    1.0000 </r>
       <r>   12.1885    0.0000 </r>
       <r>   14.6834    0.0000 </r>
       <r>   15.2147    0.0000 </r>
       <r>   17.4249    0.0000 </r>
      </set>
      <set comment="kpoint 40">
       <r>    0.2164    1.0000 </r>
       <r>    1.1670    1.0000 </r>
       <r>    6.5301    1.0000 </r>
       <r>    7.4490    1.0000 </r>
       <r>   12.9391    0.0000 </r>
       <r>   13.7792    0.0000 </r>
       <r>   15.9485    0.0000 </r>
       <r>   16.7296    0.0000 </r>
      </set>
      <set comment="kpoint 41">
       <r>   -2.5687    1.0000 </r>
       <r>    2.0178    1.0000 </r>
       <r>   10.4146    0.0000 </r>
       <r>   10.9513    0.0000 </r>
       <r>   13.2095    0.0000 </r>
       <r>   14.3674    0.0000 </r>
       <r>   14.5746    0.0000 </r>
       <r>   15.0807    0.0000 </r>
      </set>
      <set comment="kpoint 42">
       <r>   -2.4479    1.0000 </r>
       <r>    2.1356    1.0000 </r>
       <r>    9.6009    1.0077 </r>
       <r>   10.5334    0.0000 </r>
       <r>   13.4896    0.0000 </r>
       <r>   13.8211    0.0000 </r>
       <r>   14.6938    0.0000 </r>
       <r>   15.7150    0.0000 </r>
      </set>
      <set comment="kpoint 43">
       <r>   -2.2064    1.0000 </r>
       <r>    2.3708    1.0000 </r>
       <r>    8.0996    1.0000 </r>
       <r>   10.7513    0.0000 </r>
       <r>   12.3972    0.0000 </r>
       <r>   13.7518    0.0000 </r>
       <r>   14.8825    0.0000 </r>
       <r>   17.5082    0.0000 </r>
      </set>
      <set comment="kpoint 44">
       <r>   -1.8447    1.0000 </r>
       <r>    2.7220    1.0000 </r>
       <r>    6.6414    1.0000 </r>
       <r>   10.9923    0.0000 </r>
       <r>   11.0798    0.0000 </r>
       <r>   14.0984    0.0000 </r>
       <r>   15.1519    0.0000 </r>
       <r>   17.9139    0.0000 </r>
      </set>
      <set comment="kpoint 45">
       <r>   -1.3635    1.0000 </r>
       <r>    3.1849    1.0000 </r>
       <r>    5.2728    1.0000 </r>
       <r>    9.6595    1.0516 </r>
       <r>   11.5164    0.0000 </r>
       <r>   14.5451    0.0000 </r>
       <r>   15.4432    0.0000 </r>
       <r>   17.7173    0.0000 </r>
      </set>
      <set comment="kpoint 46">
       <r>   -0.7637    1.0000 </r>
       <r>    3.6709    1.0000 </r>
       <r>    4.0960    1.0000 </r>
       <r>    8.4178    1.0000 </r>
       <r>   12.0584    0.0000 </r>
       <r>   15.0898    0.0000 </r>
       <r>   15.5303    0.0000 </r>
       <r>   17.2068    0.0000 </r>
      </set>
      <set comment="kpoint 47">
       <r>   -0.0464    1.0000 </r>
       <r>    2.7838    1.0000 </r>
       <r>    4.5133    1.0000 </r>
       <r>    7.2766    1.0000 </r>
       <r>   12.7018    0.0000 </r>
       <r>   15.0369    0.0000 </r>
       <r>   15.7217    0.0000 </r>
       <r>   17.1696    0.0000 </r>
      </set>
      <set comment="kpoint 48">
       <r>    0.7866    1.0000 </r>
       <r>    1.7326    1.0000 </r>
       <r>    5.3179    1.0000 </r>
       <r>    6.2418    1.0000 </r>
       <r>   13.4371    0.0000 </r>
       <r>   14.2415    0.0000 </r>
       <r>   16.4102    0.0000 </r>
       <r>   17.0317    0.0000 </r>
      </set>
      <set comment="kpoint 49">
       <r>   -1.8735    1.0000 </r>
       <r>    0.8825    1.0000 </r>
       <r>   11.0479    0.0000 </r>
       <r>   11.5809    0.0000 </r>
       <r>   13.5513    0.0000 </r>
       <r>   13.8349    0.0000 </r>
       <r>   14.0667    0.0000 </r>
       <r>   15.0622    0.0000 </r>
      </set>
      <set comment="kpoint 50">
       <r>   -1.7531    1.0000 </r>
       <r>    1.0011    1.0000 </r>
       <r>   10.2453    0.0000 </r>
       <r>   11.1668    0.0000 </r>
       <r>   12.7858    0.0000 </r>
       <r>   13.6709    0.0000 </r>
       <r>   14.1302    0.0000 </r>
       <r>   16.3705    0.0000 </r>
      </set>
      <set comment="kpoint 51">
       <r>   -1.5125    1.0000 </r>
       <r>    1.2380    1.0000 </r>
       <r>    8.7539    1.0000 </r>
       <r>   11.3397    0.0000 </r>
       <r>   11.3833    0.0000 </r>
       <r>   13.8737    0.0000 </r>
       <r>   14.3949    0.0000 </r>
       <r>   16.8304    0.0000 </r>
      </set>
      <set comment="kpoint 52">
       <r>   -1.1521    1.0000 </r>
       <r>    1.5926    1.0000 </r>
       <r>    7.3019    1.0000 </r>
       <r>    9.9192   -0.0028 </r>
       <r>   11.7095    0.0000 </r>
       <r>   14.1748    0.0000 </r>
       <r>   14.7372    0.0000 </r>
       <r>   17.1148    0.0000 </r>
      </set>
      <set comment="kpoint 53">
       <r>   -0.6727    1.0000 </r>
       <r>    2.0631    1.0000 </r>
       <r>    5.9343    1.0000 </r>
       <r>    8.5745    1.0000 </r>
       <r>   12.1420    0.0000 </r>
       <r>   14.5540    0.0000 </r>
       <r>   15.1739    0.0000 </r>
       <r>   17.3660    0.0000 </r>
      </set>
      <set comment="kpoint 54">
       <r>   -0.0752    1.0000 </r>
       <r>    2.6443    1.0000 </r>
       <r>    4.6707    1.0000 </r>
       <r>    7.3234    1.0000 </r>
       <r>   12.6767    0.0000 </r>
       <r>   14.9522    0.0000 </r>
       <r>   15.6991    0.0000 </r>
       <r>   17.2172    0.0000 </r>
      </set>
      <set comment="kpoint 55">
       <r>    0.6389    1.0000 </r>
       <r>    3.2198    1.0000 </r>
       <r>    3.6337    1.0000 </r>
       <r>    6.1750    1.0000 </r>
       <r>   13.3054    0.0000 </r>
       <r>   15.1285    0.0000 </r>
       <r>   16.2870    0.0000 </r>
       <r>   16.7902    0.0000 </r>
      </set>
      <set comment="kpoint 56">
       <r>    1.4672    1.0000 </r>
       <r>    2.4022    1.0000 </r>
       <r>    4.2134    1.0000 </r>
       <r>    5.1353    1.0000 </r>
       <r>   14.0068    0.0000 </r>
       <r>   14.7090    0.0000 </r>
       <r>   16.8240    0.0000 </r>
       <r>   16.8793    0.0000 </r>
      </set>
      <set comment="kpoint 57">
       <r>   -1.0655    1.0000 </r>
       <r>   -0.1462    1.0000 </r>
       <r>   11.7834    0.0000 </r>
       <r>   12.3119    0.0000 </r>
       <r>   12.6190    0.0000 </r>
       <r>   13.1417    0.0000 </r>
       <r>   14.5482    0.0000 </r>
       <r>   15.3414    0.0000 </r>
      </set>
      <set comment="kpoint 58">
       <r>   -0.9455    1.0000 </r>
       <r>   -0.0268    1.0000 </r>
       <r>   10.9929    0.0000 </r>
       <r>   11.8411    0.0000 </r>
       <r>   11.9026    0.0000 </r>
       <r>   12.7385    0.0000 </r>
       <r>   14.8624    0.0000 </r>
       <r>   15.6774    0.0000 </r>
      </set>
      <set comment="kpoint 59">
       <r>   -0.7060    1.0000 </r>
       <r>    0.2115    1.0000 </r>
       <r>    9.5139    0.9974 </r>
       <r>   10.3770    0.0000 </r>
       <r>   12.1168    0.0000 </r>
       <r>   12.9487    0.0000 </r>
       <r>   15.1300    0.0000 </r>
       <r>   15.9476    0.0000 </r>
      </set>
      <set comment="kpoint 60">
       <r>   -0.3472    1.0000 </r>
       <r>    0.5684    1.0000 </r>
       <r>    8.0703    1.0000 </r>
       <r>    8.9438    1.0000 </r>
       <r>   12.4390    0.0000 </r>
       <r>   13.2638    0.0000 </r>
       <r>   15.4649    0.0000 </r>
       <r>   16.2677    0.0000 </r>
      </set>
      <set comment="kpoint 61">
       <r>    0.1300    1.0000 </r>
       <r>    1.0429    1.0000 </r>
       <r>    6.7082    1.0000 </r>
       <r>    7.5894    1.0000 </r>
       <r>   12.8643    0.0000 </r>
       <r>   13.6748    0.0000 </r>
       <r>   15.8832    0.0000 </r>
       <r>   16.6454    0.0000 </r>
      </set>
      <set comment="kpoint 62">
       <r>    0.7245    1.0000 </r>
       <r>    1.6330    1.0000 </r>
       <r>    5.4446    1.0000 </r>
       <r>    6.3310    1.0000 </r>
       <r>   13.3847    0.0000 </r>
       <r>   14.1631    0.0000 </r>
       <r>   16.3660    0.0000 </r>
       <r>   16.9931    0.0000 </r>
      </set>
      <set comment="kpoint 63">
       <r>    1.4340    1.0000 </r>
       <r>    2.3325    1.0000 </r>
       <r>    4.2921    1.0000 </r>
       <r>    5.1775    1.0000 </r>
       <r>   13.9805    0.0000 </r>
       <r>   14.6661    0.0000 </r>
       <r>   16.8106    0.0000 </r>
       <r>   16.9045    0.0000 </r>
      </set>
      <set comment="kpoint 64">
       <r>    2.2516    1.0000 </r>
       <r>    2.9932    1.0000 </r>
       <r>    3.4022    1.0000 </r>
       <r>    4.1394    1.0000 </r>
       <r>   14.5851    0.0000 </r>
       <r>   14.9277    0.0000 </r>
       <r>   16.5787    0.0000 </r>
       <r>   16.7904    0.0000 </r>
      </set>
      <set comment="kpoint 65">
       <r>   -4.0832    1.0000 </r>
       <r>    7.4387    1.0000 </r>
       <r>    7.7556    1.0000 </r>
       <r>    9.5807    0.9984 </r>
       <r>   12.3205    0.0000 </r>
       <r>   13.3737    0.0000 </r>
       <r>   13.9053    0.0000 </r>
       <r>   18.1962    0.0000 </r>
      </set>
      <set comment="kpoint 66">
       <r>   -3.9614    1.0000 </r>
       <r>    7.5245    1.0000 </r>
       <r>    7.8691    1.0000 </r>
       <r>    8.2335    1.0000 </r>
       <r>   12.9444    0.0000 </r>
       <r>   14.0242    0.0000 </r>
       <r>   14.4267    0.0000 </r>
       <r>   17.9454    0.0000 </r>
      </set>
      <set comment="kpoint 67">
       <r>   -3.7181    1.0000 </r>
       <r>    6.6402    1.0000 </r>
       <r>    7.8197    1.0000 </r>
       <r>    8.0961    1.0000 </r>
       <r>   13.2500    0.0000 </r>
       <r>   14.2624    0.0000 </r>
       <r>   16.2453    0.0000 </r>
       <r>   17.0335    0.0000 </r>
      </set>
      <set comment="kpoint 68">
       <r>   -3.3537    1.0000 </r>
       <r>    5.1781    1.0000 </r>
       <r>    8.1456    1.0000 </r>
       <r>    8.4364    1.0000 </r>
       <r>   13.5944    0.0000 </r>
       <r>   14.6194    0.0000 </r>
       <r>   15.8556    0.0000 </r>
       <r>   16.4008    0.0000 </r>
      </set>
      <set comment="kpoint 69">
       <r>   -2.8687    1.0000 </r>
       <r>    3.7923    1.0000 </r>
       <r>    8.5943    1.0000 </r>
       <r>    8.8896    1.0000 </r>
       <r>   14.0276    0.0000 </r>
       <r>   14.6630    0.0000 </r>
       <r>   15.0947    0.0000 </r>
       <r>   15.1199    0.0000 </r>
      </set>
      <set comment="kpoint 70">
       <r>   -2.2641    1.0000 </r>
       <r>    2.5055    1.0000 </r>
       <r>    9.1553    1.0000 </r>
       <r>    9.4552    0.9997 </r>
       <r>   13.5212    0.0000 </r>
       <r>   13.9217    0.0000 </r>
       <r>   14.5546    0.0000 </r>
       <r>   15.6874    0.0000 </r>
      </set>
      <set comment="kpoint 71">
       <r>   -1.5409    1.0000 </r>
       <r>    1.3252    1.0000 </r>
       <r>    9.8253   -0.0200 </r>
       <r>   10.1323    0.0000 </r>
       <r>   12.4558    0.0000 </r>
       <r>   12.8181    0.0000 </r>
       <r>   15.1714    0.0000 </r>
       <r>   16.3968    0.0000 </r>
      </set>
      <set comment="kpoint 72">
       <r>   -0.7004    1.0000 </r>
       <r>    0.2556    1.0000 </r>
       <r>   10.6014    0.0000 </r>
       <r>   10.9199    0.0000 </r>
       <r>   11.4800    0.0000 </r>
       <r>   11.8160    0.0000 </r>
       <r>   15.8686    0.0000 </r>
       <r>   16.6298    0.0000 </r>
      </set>
      <set comment="kpoint 73">
       <r>   -3.8495    1.0000 </r>
       <r>    6.1115    1.0000 </r>
       <r>    7.8363    1.0000 </r>
       <r>    9.7928    0.1464 </r>
       <r>   12.6609    0.0000 </r>
       <r>   13.7737    0.0000 </r>
       <r>   15.4460    0.0000 </r>
       <r>   16.9593    0.0000 </r>
      </set>
      <set comment="kpoint 74">
       <r>   -3.7279    1.0000 </r>
       <r>    6.2231    1.0000 </r>
       <r>    7.9344    1.0000 </r>
       <r>    8.4426    1.0000 </r>
       <r>   13.4734    0.0000 </r>
       <r>   14.5961    0.0000 </r>
       <r>   15.5968    0.0000 </r>
       <r>   16.8946    0.0000 </r>
      </set>
      <set comment="kpoint 75">
       <r>   -3.4848    1.0000 </r>
       <r>    6.4137    1.0000 </r>
       <r>    6.9299    1.0000 </r>
       <r>    8.1910    1.0000 </r>
       <r>   13.8043    0.0000 </r>
       <r>   15.6671    0.0000 </r>
       <r>   16.0327    0.0000 </r>
       <r>   16.5437    0.0000 </r>
      </set>
      <set comment="kpoint 76">
       <r>   -3.1208    1.0000 </r>
       <r>    5.3913    1.0000 </r>
       <r>    6.8274    1.0000 </r>
       <r>    8.5265    1.0000 </r>
       <r>   14.1542    0.0000 </r>
       <r>   14.7656    0.0000 </r>
       <r>   16.0625    0.0000 </r>
       <r>   16.3215    0.0000 </r>
      </set>
      <set comment="kpoint 77">
       <r>   -2.6364    1.0000 </r>
       <r>    4.0143    1.0000 </r>
       <r>    7.2773    1.0000 </r>
       <r>    8.9776    1.0000 </r>
       <r>   13.5098    0.0000 </r>
       <r>   14.5926    0.0000 </r>
       <r>   15.1211    0.0000 </r>
       <r>   16.5233    0.0000 </r>
      </set>
      <set comment="kpoint 78">
       <r>   -2.0325    1.0000 </r>
       <r>    2.7306    1.0000 </r>
       <r>    7.8466    1.0000 </r>
       <r>    9.5408    0.9955 </r>
       <r>   12.3224    0.0000 </r>
       <r>   13.9569    0.0000 </r>
       <r>   15.1243    0.0000 </r>
       <r>   17.0860    0.0000 </r>
      </set>
      <set comment="kpoint 79">
       <r>   -1.3102    1.0000 </r>
       <r>    1.5522    1.0000 </r>
       <r>    8.5288    1.0000 </r>
       <r>   10.2143    0.0000 </r>
       <r>   11.2226    0.0000 </r>
       <r>   12.8731    0.0000 </r>
       <r>   15.7420    0.0000 </r>
       <r>   17.7512    0.0000 </r>
      </set>
      <set comment="kpoint 80">
       <r>   -0.4707    1.0000 </r>
       <r>    0.4841    1.0000 </r>
       <r>    9.3210    1.0000 </r>
       <r>   10.2202    0.0000 </r>
       <r>   10.9963    0.0000 </r>
       <r>   11.8839    0.0000 </r>
       <r>   16.4284    0.0000 </r>
       <r>   17.1430    0.0000 </r>
      </set>
      <set comment="kpoint 81">
       <r>   -3.4994    1.0000 </r>
       <r>    4.6999    1.0000 </r>
       <r>    8.1563    1.0000 </r>
       <r>   10.1102    0.0000 </r>
       <r>   13.0123    0.0000 </r>
       <r>   14.1333    0.0000 </r>
       <r>   15.7110    0.0000 </r>
       <r>   17.3683    0.0000 </r>
      </set>
      <set comment="kpoint 82">
       <r>   -3.3780    1.0000 </r>
       <r>    4.8150    1.0000 </r>
       <r>    8.2526    1.0000 </r>
       <r>    8.7675    1.0000 </r>
       <r>   13.8478    0.0000 </r>
       <r>   14.9432    0.0000 </r>
       <r>   15.7200    0.0000 </r>
       <r>   16.3531    0.0000 </r>
      </set>
      <set comment="kpoint 83">
       <r>   -3.1354    1.0000 </r>
       <r>    5.0425    1.0000 </r>
       <r>    7.2217    1.0000 </r>
       <r>    8.5122    1.0000 </r>
       <r>   14.1815    0.0000 </r>
       <r>   14.8201    0.0000 </r>
       <r>   16.0577    0.0000 </r>
       <r>   16.6337    0.0000 </r>
      </set>
      <set comment="kpoint 84">
       <r>   -2.7720    1.0000 </r>
       <r>    5.3359    1.0000 </r>
       <r>    5.8107    1.0000 </r>
       <r>    8.8465    1.0000 </r>
       <r>   13.4908    0.0000 </r>
       <r>   14.5314    0.0000 </r>
       <r>   16.0948    0.0000 </r>
       <r>   17.0594    0.0000 </r>
      </set>
      <set comment="kpoint 85">
       <r>   -2.2884    1.0000 </r>
       <r>    4.3406    1.0000 </r>
       <r>    5.8865    1.0000 </r>
       <r>    9.2965    1.0000 </r>
       <r>   12.2001    0.0000 </r>
       <r>   14.9691    0.0000 </r>
       <r>   15.3326    0.0000 </r>
       <r>   16.9530    0.0000 </r>
      </set>
      <set comment="kpoint 86">
       <r>   -1.6856    1.0000 </r>
       <r>    3.0664    1.0000 </r>
       <r>    6.4548    1.0000 </r>
       <r>    9.8582   -0.0502 </r>
       <r>   10.9886    0.0000 </r>
       <r>   14.2336    0.0000 </r>
       <r>   15.4975    0.0000 </r>
       <r>   17.2786    0.0000 </r>
      </set>
      <set comment="kpoint 87">
       <r>   -0.9646    1.0000 </r>
       <r>    1.8918    1.0000 </r>
       <r>    7.1430    1.0000 </r>
       <r>    9.8709   -0.0420 </r>
       <r>   10.5297    0.0000 </r>
       <r>   13.1704    0.0000 </r>
       <r>   16.1036    0.0000 </r>
       <r>   17.5206    0.0000 </r>
      </set>
      <set comment="kpoint 88">
       <r>   -0.1267    1.0000 </r>
       <r>    0.8262    1.0000 </r>
       <r>    7.9439    1.0000 </r>
       <r>    8.8543    1.0000 </r>
       <r>   11.3084    0.0000 </r>
       <r>   12.1907    0.0000 </r>
       <r>   16.7507    0.0000 </r>
       <r>   17.3222    0.0000 </r>
      </set>
      <set comment="kpoint 89">
       <r>   -3.0336    1.0000 </r>
       <r>    3.3674    1.0000 </r>
       <r>    8.5891    1.0000 </r>
       <r>   10.5325    0.0000 </r>
       <r>   13.4486    0.0000 </r>
       <r>   14.5088    0.0000 </r>
       <r>   14.5919    0.0000 </r>
       <r>   16.2617    0.0000 </r>
      </set>
      <set comment="kpoint 90">
       <r>   -2.9125    1.0000 </r>
       <r>    3.4840    1.0000 </r>
       <r>    8.6843    1.0000 </r>
       <r>    9.2009    1.0000 </r>
       <r>   14.2807    0.0000 </r>
       <r>   14.5539    0.0000 </r>
       <r>   15.1349    0.0000 </r>
       <r>   15.3944    0.0000 </r>
      </set>
      <set comment="kpoint 91">
       <r>   -2.6704    1.0000 </r>
       <r>    3.7166    1.0000 </r>
       <r>    7.6567    1.0000 </r>
       <r>    8.9450    1.0000 </r>
       <r>   13.6219    0.0000 </r>
       <r>   14.6191    0.0000 </r>
       <r>   14.8663    0.0000 </r>
       <r>   17.1093    0.0000 </r>
      </set>
      <set comment="kpoint 92">
       <r>   -2.3079    1.0000 </r>
       <r>    4.0614    1.0000 </r>
       <r>    6.2021    1.0000 </r>
       <r>    9.2781    1.0000 </r>
       <r>   12.2557    0.0000 </r>
       <r>   14.9664    0.0000 </r>
       <r>   15.1152    0.0000 </r>
       <r>   17.1840    0.0000 </r>
      </set>
      <set comment="kpoint 93">
       <r>   -1.8254    1.0000 </r>
       <r>    4.4536    1.0000 </r>
       <r>    4.8980    1.0000 </r>
       <r>    9.7268    0.7862 </r>
       <r>   10.9427    0.0000 </r>
       <r>   15.2629    0.0000 </r>
       <r>   15.3962    0.0000 </r>
       <r>   16.2507    0.0000 </r>
      </set>
      <set comment="kpoint 94">
       <r>   -1.2240    1.0000 </r>
       <r>    3.5065    1.0000 </r>
       <r>    5.1471    1.0000 </r>
       <r>    9.7150    0.8794 </r>
       <r>   10.2866    0.0000 </r>
       <r>   14.5696    0.0000 </r>
       <r>   15.9067    0.0000 </r>
       <r>   16.2791    0.0000 </r>
      </set>
      <set comment="kpoint 95">
       <r>   -0.5048    1.0000 </r>
       <r>    2.3423    1.0000 </r>
       <r>    5.8335    1.0000 </r>
       <r>    8.5845    1.0000 </r>
       <r>   10.9551    0.0000 </r>
       <r>   13.5647    0.0000 </r>
       <r>   16.4674    0.0000 </r>
       <r>   16.7275    0.0000 </r>
      </set>
      <set comment="kpoint 96">
       <r>    0.3308    1.0000 </r>
       <r>    1.2809    1.0000 </r>
       <r>    6.6397    1.0000 </r>
       <r>    7.5580    1.0000 </r>
       <r>   11.7291    0.0000 </r>
       <r>   12.6031    0.0000 </r>
       <r>   16.9684    0.0000 </r>
       <r>   17.0878    0.0000 </r>
      </set>
      <set comment="kpoint 97">
       <r>   -2.4528    1.0000 </r>
       <r>    2.1304    1.0000 </r>
       <r>    9.1300    1.0000 </r>
       <r>   11.0589    0.0000 </r>
       <r>   13.3784    0.0000 </r>
       <r>   13.9781    0.0000 </r>
       <r>   15.1591    0.0000 </r>
       <r>   15.1788    0.0000 </r>
      </set>
      <set comment="kpoint 98">
       <r>   -2.3320    1.0000 </r>
       <r>    2.2482    1.0000 </r>
       <r>    9.2239    1.0000 </r>
       <r>    9.7415    0.6474 </r>
       <r>   13.4434    0.0000 </r>
       <r>   13.9961    0.0000 </r>
       <r>   14.7973    0.0000 </r>
       <r>   15.9550    0.0000 </r>
      </set>
      <set comment="kpoint 99">
       <r>   -2.0906    1.0000 </r>
       <r>    2.4832    1.0000 </r>
       <r>    8.2027    1.0000 </r>
       <r>    9.4858    0.9989 </r>
       <r>   12.4873    0.0000 </r>
       <r>   13.7366    0.0000 </r>
       <r>   15.1421    0.0000 </r>
       <r>   17.6435    0.0000 </r>
      </set>
      <set comment="kpoint 100">
       <r>   -1.7292    1.0000 </r>
       <r>    2.8344    1.0000 </r>
       <r>    6.7504    1.0000 </r>
       <r>    9.8173    0.0060 </r>
       <r>   11.0956    0.0000 </r>
       <r>   14.0305    0.0000 </r>
       <r>   15.4831    0.0000 </r>
       <r>   17.4890    0.0000 </r>
      </set>
      <set comment="kpoint 101">
       <r>   -1.2482    1.0000 </r>
       <r>    3.2971    1.0000 </r>
       <r>    5.3837    1.0000 </r>
       <r>    9.7663    0.3886 </r>
       <r>   10.2641    0.0000 </r>
       <r>   14.4045    0.0000 </r>
       <r>   15.8949    0.0000 </r>
       <r>   16.4557    0.0000 </r>
      </set>
      <set comment="kpoint 102">
       <r>   -0.6486    1.0000 </r>
       <r>    3.7835    1.0000 </r>
       <r>    4.2074    1.0000 </r>
       <r>    8.5263    1.0000 </r>
       <r>   10.8210    0.0000 </r>
[...]
       <r>    3.3991    1.0000 </r>
       <r>    5.2610    1.0000 </r>
       <r>    6.1348    1.0000 </r>
       <r>    9.0235    1.0000 </r>
       <r>    9.8765   -0.0370 </r>
       <r>   11.6811    0.0000 </r>
       <r>   12.5144    0.0000 </r>
      </set>
      <set comment="kpoint 278">
       <r>    3.1008    1.0000 </r>
       <r>    3.9836    1.0000 </r>
       <r>    5.8354    1.0000 </r>
       <r>    6.7045    1.0000 </r>
       <r>    7.7838    1.0000 </r>
       <r>    8.6477    1.0000 </r>
       <r>   10.4472    0.0000 </r>
       <r>   11.2937    0.0000 </r>
      </set>
      <set comment="kpoint 279">
       <r>    3.8022    1.0000 </r>
       <r>    4.6754    1.0000 </r>
       <r>    6.4287    1.0000 </r>
       <r>    6.7463    1.0000 </r>
       <r>    7.2711    1.0000 </r>
       <r>    7.6318    1.0000 </r>
       <r>    9.3188    1.0000 </r>
       <r>   10.1716    0.0000 </r>
      </set>
      <set comment="kpoint 280">
       <r>    4.6090    1.0000 </r>
       <r>    5.3303    1.0000 </r>
       <r>    5.7379    1.0000 </r>
       <r>    6.4526    1.0000 </r>
       <r>    7.3568    1.0000 </r>
       <r>    8.1168    1.0000 </r>
       <r>    8.4052    1.0000 </r>
       <r>    9.1582    1.0000 </r>
      </set>
      <set comment="kpoint 281">
       <r>    2.1060    1.0000 </r>
       <r>    2.7860    1.0000 </r>
       <r>    3.3128    1.0000 </r>
       <r>    3.9886    1.0000 </r>
       <r>   14.9491    0.0000 </r>
       <r>   15.2666    0.0000 </r>
       <r>   17.0129    0.0000 </r>
       <r>   17.2179    0.0000 </r>
      </set>
      <set comment="kpoint 282">
       <r>    2.2246    1.0000 </r>
       <r>    2.9052    1.0000 </r>
       <r>    3.4288    1.0000 </r>
       <r>    4.1052    1.0000 </r>
       <r>   13.8538    0.0000 </r>
       <r>   14.3035    0.0000 </r>
       <r>   15.3615    0.0000 </r>
       <r>   15.7830    0.0000 </r>
      </set>
      <set comment="kpoint 283">
       <r>    2.4614    1.0000 </r>
       <r>    3.1430    1.0000 </r>
       <r>    3.6609    1.0000 </r>
       <r>    4.3383    1.0000 </r>
       <r>   12.4759    0.0000 </r>
       <r>   13.0199    0.0000 </r>
       <r>   13.7868    0.0000 </r>
       <r>   14.3181    0.0000 </r>
      </set>
      <set comment="kpoint 284">
       <r>    2.8159    1.0000 </r>
       <r>    3.4985    1.0000 </r>
       <r>    4.0089    1.0000 </r>
       <r>    4.6874    1.0000 </r>
       <r>   11.0899    0.0000 </r>
       <r>   11.6934    0.0000 </r>
       <r>   12.3100    0.0000 </r>
       <r>   12.9053    0.0000 </r>
      </set>
      <set comment="kpoint 285">
       <r>    3.2869    1.0000 </r>
       <r>    3.9699    1.0000 </r>
       <r>    4.4728    1.0000 </r>
       <r>    5.1515    1.0000 </r>
       <r>    9.7669    0.3826 </r>
       <r>   10.4095    0.0000 </r>
       <r>   10.9380    0.0000 </r>
       <r>   11.5744    0.0000 </r>
      </set>
      <set comment="kpoint 286">
       <r>    3.8728    1.0000 </r>
       <r>    4.5535    1.0000 </r>
       <r>    5.0525    1.0000 </r>
       <r>    5.7288    1.0000 </r>
       <r>    8.5332    1.0000 </r>
       <r>    9.2027    1.0000 </r>
       <r>    9.6748    1.0424 </r>
       <r>   10.3388    0.0000 </r>
      </set>
      <set comment="kpoint 287">
       <r>    4.5699    1.0000 </r>
       <r>    5.2395    1.0000 </r>
       <r>    5.7477    1.0000 </r>
       <r>    6.4113    1.0000 </r>
       <r>    7.4070    1.0000 </r>
       <r>    8.0976    1.0000 </r>
       <r>    8.5226    1.0000 </r>
       <r>    9.2067    1.0000 </r>
      </set>
      <set comment="kpoint 288">
       <r>    5.3644    1.0000 </r>
       <r>    5.9126    1.0000 </r>
       <r>    6.5029    1.0000 </r>
       <r>    6.5581    1.0000 </r>
       <r>    6.9330    1.0000 </r>
       <r>    7.3801    1.0000 </r>
       <r>    7.4834    1.0000 </r>
       <r>    8.1870    1.0000 </r>
      </set>
     </set>
    </set>
   </array>
  </eigenvalues>
  <separator name="orbital magnetization" >
   <v name="MAGDIPOLOUT">      0.00000000      0.00000000      0.00000000</v>
  </separator>
  <dos>
   <i name="efermi">      9.75565397 </i>
   <total>
    <array>
     <dimension dim="1">gridpoints</dimension>
     <dimension dim="2">spin</dimension>
     <field>energy</field>
     <field>total</field>
     <field>integrated</field>
     <set>
      <set comment="spin 1">
       <r>    -5.5450     0.0000     0.0000 </r>
       <r>    -5.4550     0.0000     0.0000 </r>
       <r>    -5.3649     0.0000     0.0000 </r>
       <r>    -5.2749     0.0000     0.0000 </r>
       <r>    -5.1848     0.0000     0.0000 </r>
       <r>    -5.0948     0.0000     0.0000 </r>
       <r>    -5.0047     0.0000     0.0000 </r>
       <r>    -4.9147     0.0000     0.0000 </r>
       <r>    -4.8247     0.0000     0.0000 </r>
       <r>    -4.7346     0.0000     0.0000 </r>
       <r>    -4.6446     0.0000     0.0000 </r>
       <r>    -4.5545     0.0001     0.0000 </r>
       <r>    -4.4645    -0.0005     0.0000 </r>
       <r>    -4.3745     0.0017     0.0001 </r>
       <r>    -4.2844     0.0287     0.0027 </r>
       <r>    -4.1944     0.0807     0.0100 </r>
       <r>    -4.1043     0.0998     0.0190 </r>
       <r>    -4.0143     0.1022     0.0282 </r>
       <r>    -3.9242     0.1295     0.0398 </r>
       <r>    -3.8342     0.1889     0.0568 </r>
       <r>    -3.7442     0.1528     0.0706 </r>
       <r>    -3.6541     0.1060     0.0801 </r>
       <r>    -3.5641     0.1973     0.0979 </r>
       <r>    -3.4740     0.2935     0.1243 </r>
       <r>    -3.3840     0.1943     0.1418 </r>
       <r>    -3.2940     0.1092     0.1516 </r>
       <r>    -3.2039     0.2411     0.1734 </r>
       <r>    -3.1139     0.2961     0.2000 </r>
       <r>    -3.0238     0.2363     0.2213 </r>
       <r>    -2.9338     0.2108     0.2403 </r>
       <r>    -2.8437     0.3124     0.2684 </r>
       <r>    -2.7537     0.3019     0.2956 </r>
       <r>    -2.6637     0.2344     0.3167 </r>
       <r>    -2.5736     0.1881     0.3336 </r>
       <r>    -2.4836     0.2323     0.3545 </r>
       <r>    -2.3935     0.4758     0.3974 </r>
       <r>    -2.3035     0.3693     0.4306 </r>
       <r>    -2.2135     0.2596     0.4540 </r>
       <r>    -2.1234     0.2499     0.4765 </r>
       <r>    -2.0334     0.4022     0.5127 </r>
       <r>    -1.9433     0.1525     0.5265 </r>
       <r>    -1.8533     0.2983     0.5533 </r>
       <r>    -1.7632     0.5154     0.5997 </r>
       <r>    -1.6732     0.4676     0.6418 </r>
       <r>    -1.5832     0.2568     0.6649 </r>
       <r>    -1.4931     0.3173     0.6935 </r>
       <r>    -1.4031     0.4056     0.7300 </r>
       <r>    -1.3130     0.3605     0.7625 </r>
       <r>    -1.2230     0.3503     0.7940 </r>
       <r>    -1.1330     0.3612     0.8266 </r>
       <r>    -1.0429     0.4538     0.8674 </r>
       <r>    -0.9529     0.4455     0.9075 </r>
       <r>    -0.8628     0.2085     0.9263 </r>
       <r>    -0.7728     0.3739     0.9600 </r>
       <r>    -0.6827     0.6047     1.0144 </r>
       <r>    -0.5927     0.6315     1.0713 </r>
       <r>    -0.5027     0.3385     1.1018 </r>
       <r>    -0.4126     0.2894     1.1278 </r>
       <r>    -0.3226     0.4031     1.1641 </r>
       <r>    -0.2325     0.3814     1.1985 </r>
       <r>    -0.1425     0.3521     1.2302 </r>
       <r>    -0.0524     0.4314     1.2690 </r>
       <r>     0.0376     0.6887     1.3310 </r>
       <r>     0.1276     0.5152     1.3774 </r>
       <r>     0.2177     0.4384     1.4169 </r>
       <r>     0.3077     0.5183     1.4636 </r>
       <r>     0.3978     0.4481     1.5039 </r>
       <r>     0.4878     0.3328     1.5339 </r>
       <r>     0.5778     0.5014     1.5790 </r>
       <r>     0.6679     0.5299     1.6267 </r>
       <r>     0.7579     0.4649     1.6686 </r>
       <r>     0.8480     0.4731     1.7112 </r>
       <r>     0.9380     0.4789     1.7543 </r>
       <r>     1.0281     0.5331     1.8023 </r>
       <r>     1.1181     0.6525     1.8611 </r>
       <r>     1.2081     0.4207     1.8990 </r>
       <r>     1.2982     0.4744     1.9417 </r>
       <r>     1.3882     0.6484     2.0000 </r>
       <r>     1.4783     0.5165     2.0465 </r>
       <r>     1.5683     0.4834     2.0901 </r>
       <r>     1.6583     0.5399     2.1387 </r>
       <r>     1.7484     0.6535     2.1975 </r>
       <r>     1.8384     0.5761     2.2494 </r>
       <r>     1.9285     0.5081     2.2952 </r>
       <r>     2.0185     0.3531     2.3270 </r>
       <r>     2.1086     0.4662     2.3689 </r>
       <r>     2.1986     0.5955     2.4226 </r>
       <r>     2.2886     0.5605     2.4730 </r>
       <r>     2.3787     0.8359     2.5483 </r>
       <r>     2.4687     0.7204     2.6132 </r>
       <r>     2.5588     0.5442     2.6622 </r>
       <r>     2.6488     0.5149     2.7085 </r>
       <r>     2.7388     0.7094     2.7724 </r>
       <r>     2.8289     0.6287     2.8290 </r>
       <r>     2.9189     0.4363     2.8683 </r>
       <r>     3.0090     0.5514     2.9180 </r>
       <r>     3.0990     0.5736     2.9696 </r>
       <r>     3.1891     0.5921     3.0229 </r>
       <r>     3.2791     0.4655     3.0648 </r>
       <r>     3.3691     0.7773     3.1348 </r>
       <r>     3.4592     0.7438     3.2018 </r>
       <r>     3.5492     0.6454     3.2599 </r>
       <r>     3.6393     0.4825     3.3034 </r>
       <r>     3.7293     0.6569     3.3625 </r>
       <r>     3.8193     0.6059     3.4171 </r>
       <r>     3.9094     0.5243     3.4643 </r>
       <r>     3.9994     0.7373     3.5307 </r>
       <r>     4.0895     0.7274     3.5961 </r>
       <r>     4.1795     0.5180     3.6428 </r>
       <r>     4.2696     0.6662     3.7028 </r>
       <r>     4.3596     0.8188     3.7765 </r>
       <r>     4.4496     0.4843     3.8201 </r>
       <r>     4.5397     0.5869     3.8730 </r>
       <r>     4.6297     0.6622     3.9326 </r>
       <r>     4.7198     0.7457     3.9997 </r>
       <r>     4.8098     0.7676     4.0688 </r>
       <r>     4.8999     0.5569     4.1190 </r>
       <r>     4.9899     0.5666     4.1700 </r>
       <r>     5.0799     0.6873     4.2319 </r>
       <r>     5.1700     0.7314     4.2977 </r>
       <r>     5.2600     0.8091     4.3706 </r>
       <r>     5.3501     1.1239     4.4718 </r>
       <r>     5.4401     0.7171     4.5364 </r>
       <r>     5.5301     0.3817     4.5707 </r>
       <r>     5.6202     0.4899     4.6148 </r>
       <r>     5.7102     0.6453     4.6729 </r>
       <r>     5.8003     0.8729     4.7515 </r>
       <r>     5.8903     0.7619     4.8201 </r>
       <r>     5.9804     0.6236     4.8763 </r>
       <r>     6.0704     0.6980     4.9391 </r>
       <r>     6.1604     0.8053     5.0116 </r>
       <r>     6.2505     0.5513     5.0613 </r>
       <r>     6.3405     0.7822     5.1317 </r>
       <r>     6.4306     1.1528     5.2355 </r>
       <r>     6.5206     0.8549     5.3125 </r>
       <r>     6.6106     0.5287     5.3601 </r>
       <r>     6.7007     0.7193     5.4249 </r>
       <r>     6.7907     0.9223     5.5079 </r>
       <r>     6.8808     0.9024     5.5892 </r>
       <r>     6.9708     0.6335     5.6462 </r>
       <r>     7.0609     0.5108     5.6922 </r>
       <r>     7.1509     0.5894     5.7453 </r>
       <r>     7.2409     0.7855     5.8160 </r>
       <r>     7.3310     0.8782     5.8951 </r>
       <r>     7.4210     1.0542     5.9900 </r>
       <r>     7.5111     0.9555     6.0760 </r>
       <r>     7.6011     0.5928     6.1294 </r>
       <r>     7.6911     0.8763     6.2083 </r>
       <r>     7.7812     0.7986     6.2802 </r>
       <r>     7.8712     0.8981     6.3611 </r>
       <r>     7.9613     0.7368     6.4274 </r>
       <r>     8.0513     0.5426     6.4763 </r>
       <r>     8.1414     0.9324     6.5602 </r>
       <r>     8.2314     1.0050     6.6507 </r>
       <r>     8.3214     0.6981     6.7136 </r>
       <r>     8.4115     0.9405     6.7983 </r>
       <r>     8.5015     0.9289     6.8819 </r>
       <r>     8.5916     0.8037     6.9543 </r>
       <r>     8.6816     0.9321     7.0382 </r>
       <r>     8.7716     0.8480     7.1146 </r>
       <r>     8.8617     0.8502     7.1911 </r>
       <r>     8.9517     0.8896     7.2712 </r>
       <r>     9.0418     0.7722     7.3408 </r>
       <r>     9.1318     0.8939     7.4212 </r>
       <r>     9.2219     1.1923     7.5286 </r>
       <r>     9.3119     0.9568     7.6148 </r>
       <r>     9.4019     0.6832     7.6763 </r>
       <r>     9.4920     0.9530     7.7621 </r>
       <r>     9.5820     0.8400     7.8377 </r>
       <r>     9.6721     0.7660     7.9067 </r>
       <r>     9.7621     1.1266     8.0081 </r>
       <r>     9.8521     1.1528     8.1119 </r>
       <r>     9.9422     0.9713     8.1994 </r>
       <r>    10.0322     0.7292     8.2651 </r>
       <r>    10.1223     0.8747     8.3438 </r>
       <r>    10.2123     1.0227     8.4359 </r>
       <r>    10.3024     1.1650     8.5408 </r>
       <r>    10.3924     0.9095     8.6227 </r>
       <r>    10.4824     0.6712     8.6831 </r>
       <r>    10.5725     0.7275     8.7486 </r>
       <r>    10.6625     0.8963     8.8293 </r>
       <r>    10.7526     0.7074     8.8930 </r>
       <r>    10.8426     0.7016     8.9562 </r>
       <r>    10.9327     0.9145     9.0386 </r>
       <r>    11.0227     1.1895     9.1457 </r>
       <r>    11.1127     0.9804     9.2339 </r>
       <r>    11.2028     0.9817     9.3223 </r>
       <r>    11.2928     0.9694     9.4096 </r>
       <r>    11.3829     0.6527     9.4684 </r>
       <r>    11.4729     0.9108     9.5504 </r>
       <r>    11.5629     0.9884     9.6394 </r>
       <r>    11.6530     0.6333     9.6964 </r>
       <r>    11.7430     0.7750     9.7662 </r>
       <r>    11.8331     0.9319     9.8501 </r>
       <r>    11.9231     0.6653     9.9100 </r>
       <r>    12.0132     0.7907     9.9812 </r>
       <r>    12.1032     0.8962    10.0619 </r>
       <r>    12.1932     1.0300    10.1547 </r>
       <r>    12.2833     1.1878    10.2616 </r>
       <r>    12.3733     0.9309    10.3454 </r>
       <r>    12.4634     1.0385    10.4389 </r>
       <r>    12.5534     0.9077    10.5207 </r>
       <r>    12.6434     0.6971    10.5834 </r>
       <r>    12.7335     1.0399    10.6771 </r>
       <r>    12.8235     0.8116    10.7502 </r>
       <r>    12.9136     0.9940    10.8397 </r>
       <r>    13.0036     1.0678    10.9358 </r>
       <r>    13.0937     0.7712    11.0052 </r>
       <r>    13.1837     0.8042    11.0777 </r>
       <r>    13.2737     0.7436    11.1446 </r>
       <r>    13.3638     0.8378    11.2201 </r>
       <r>    13.4538     1.3829    11.3446 </r>
       <r>    13.5439     1.2256    11.4549 </r>
       <r>    13.6339     1.0460    11.5491 </r>
       <r>    13.7239     0.7087    11.6129 </r>
       <r>    13.8140     1.1523    11.7167 </r>
       <r>    13.9040     1.0661    11.8127 </r>
       <r>    13.9941     0.6995    11.8757 </r>
       <r>    14.0841     1.0764    11.9726 </r>
       <r>    14.1742     1.3326    12.0926 </r>
       <r>    14.2642     0.8729    12.1712 </r>
       <r>    14.3542     0.7863    12.2420 </r>
       <r>    14.4443     1.0807    12.3393 </r>
       <r>    14.5343     0.8450    12.4153 </r>
       <r>    14.6244     1.4389    12.5449 </r>
       <r>    14.7144     1.1715    12.6504 </r>
       <r>    14.8044     1.0193    12.7422 </r>
       <r>    14.8945     0.7425    12.8090 </r>
       <r>    14.9845     1.0518    12.9037 </r>
       <r>    15.0746     0.8271    12.9782 </r>
       <r>    15.1646     1.5979    13.1221 </r>
       <r>    15.2547     1.1457    13.2253 </r>
       <r>    15.3447     0.6894    13.2873 </r>
       <r>    15.4347     0.8698    13.3656 </r>
       <r>    15.5248     1.0581    13.4609 </r>
       <r>    15.6148     1.0133    13.5522 </r>
       <r>    15.7049     1.2173    13.6618 </r>
       <r>    15.7949     1.1047    13.7612 </r>
       <r>    15.8849     0.9623    13.8479 </r>
       <r>    15.9750     1.1197    13.9487 </r>
       <r>    16.0650     1.1396    14.0513 </r>
       <r>    16.1551     1.1610    14.1559 </r>
       <r>    16.2451     0.8453    14.2320 </r>
       <r>    16.3352     1.0159    14.3235 </r>
       <r>    16.4252     1.2441    14.4355 </r>
       <r>    16.5152     1.2683    14.5497 </r>
       <r>    16.6053     0.8682    14.6278 </r>
       <r>    16.6953     0.8329    14.7028 </r>
       <r>    16.7854     1.0413    14.7966 </r>
       <r>    16.8754     1.3095    14.9145 </r>
       <r>    16.9655     1.3475    15.0358 </r>
       <r>    17.0555     1.0496    15.1304 </r>
       <r>    17.1455     0.9651    15.2173 </r>
       <r>    17.2356     1.2163    15.3268 </r>
       <r>    17.3256     1.3704    15.4502 </r>
       <r>    17.4157     1.0521    15.5449 </r>
       <r>    17.5057     0.8392    15.6205 </r>
       <r>    17.5957     0.7251    15.6857 </r>
       <r>    17.6858     0.8328    15.7607 </r>
       <r>    17.7758     0.5505    15.8103 </r>
       <r>    17.8659     0.6181    15.8660 </r>
       <r>    17.9559     0.4168    15.9035 </r>
       <r>    18.0460     0.2563    15.9266 </r>
       <r>    18.1360     0.1750    15.9423 </r>
       <r>    18.2260     0.1374    15.9547 </r>
       <r>    18.3161     0.0773    15.9616 </r>
       <r>    18.4061     0.1310    15.9734 </r>
       <r>    18.4962     0.0763    15.9803 </r>
       <r>    18.5862     0.0481    15.9846 </r>
       <r>    18.6762    -0.0031    15.9844 </r>
       <r>    18.7663     0.0000    15.9844 </r>
       <r>    18.8563     0.0001    15.9844 </r>
       <r>    18.9464     0.0000    15.9844 </r>
       <r>    19.0364     0.0004    15.9844 </r>
       <r>    19.1265    -0.0031    15.9841 </r>
       <r>    19.2165     0.0164    15.9856 </r>
       <r>    19.3065     0.0676    15.9917 </r>
       <r>    19.3966     0.0208    15.9936 </r>
       <r>    19.4866     0.0291    15.9962 </r>
       <r>    19.5767    -0.0008    15.9961 </r>
       <r>    19.6667    -0.0002    15.9961 </r>
       <r>    19.7567     0.0001    15.9961 </r>
       <r>    19.8468     0.0000    15.9961 </r>
       <r>    19.9368     0.0000    15.9961 </r>
       <r>    20.0269     0.0002    15.9961 </r>
       <r>    20.1169    -0.0017    15.9960 </r>
       <r>    20.2070     0.0094    15.9968 </r>
       <r>    20.2970     0.0345    15.9999 </r>
       <r>    20.3870     0.0016    16.0001 </r>
       <r>    20.4771    -0.0007    16.0000 </r>
       <r>    20.5671     0.0001    16.0000 </r>
       <r>    20.6572     0.0000    16.0000 </r>
       <r>    20.7472     0.0000    16.0000 </r>
       <r>    20.8372     0.0000    16.0000 </r>
       <r>    20.9273     0.0000    16.0000 </r>
       <r>    21.0173     0.0000    16.0000 </r>
       <r>    21.1074     0.0000    16.0000 </r>
       <r>    21.1974     0.0000    16.0000 </r>
       <r>    21.2875     0.0000    16.0000 </r>
       <r>    21.3775     0.0000    16.0000 </r>
       <r>    21.4675     0.0000    16.0000 </r>
      </set>
     </set>
    </array>
   </total>
  </dos>
 </calculation>
 <structure name="finalpos" >
  <crystal>
   <varray name="basis" >
    <v>       3.05193200       0.00000000       0.00000000 </v>
    <v>       0.00000000       3.11421633       0.00000000 </v>
    <v>       0.00000000       0.00000000       3.11421633 </v>
   </varray>
   <i name="volume">     29.59868431 </i>
   <varray name="rec_basis" >
    <v>       0.32766130       0.00000000       0.00000000 </v>
    <v>       0.00000000       0.32110807       0.00000000 </v>
    <v>       0.00000000       0.00000000       0.32110807 </v>
   </varray>
  </crystal>
  <varray name="positions" >
   <v>       0.00000000       0.00000000       0.00000000 </v>
   <v>       0.50000000       0.50000000       0.50000000 </v>
  </varray>
 </structure>
</modeling>
